 vasp.6.3.1 04May22 (build Nov  5 2022 14:28:48) complex                         
 executed on              LinuxNV date 2024.03.13  10:23:36
 running    2 mpi-ranks, with    1 threads/rank
 distrk:  each k-point on    2 cores,    1 groups
 distr:  one band on NCORE=   1 cores,    2 groups


--------------------------------------------------------------------------------------------------------


 INCAR:
   ALGO = All
   EDIFF = 1e-05
   EDIFFG = -0.03
   ENCUT = 520
   IBRION = 2
   ICHARG = 1
   ISIF = 2
   ISMEAR = 0
   ISPIN = 2
   ISYM = 0
   LPLANE = True
   LREAL = A
   LORBIT = 11
   LWAVE = False
   MAGMOM = 6*0.06
   NELM = 100
   NCORE = 16
   NSIM = 4
   NSW = 150
   PREC = Accurate
   SIGMA = 0.05

 POTCAR:    PAW_PBE Pt_pv 12Dec2005               
 POTCAR:    PAW_PBE Pt_pv 12Dec2005               
   SHA256 =  e5abf7e8cd8db70d0153315afc5ad66b6e3eeee29cc2d5b91b16730957c1d208 Pt_pv/POTCAR          
   COPYR  = (c) Copyright 12Dec2005 Georg Kresse                                                    
   COPYR  = This file is part of the software VASP. Any use, copying, and all other rights are regul
   COPYR  = If you do not have a valid VASP license, you may not use, copy or distribute this file. 
   VRHFIN =Pt: 5ps1d9                                                                               
   LEXCH  = PE                                                                                      
   EATOM  =  2428.2504 eV,  178.4714 Ry                                                             
                                                                                                    
   TITEL  = PAW_PBE Pt_pv 12Dec2005                                                                 
   LULTRA =        F    use ultrasoft PP ?                                                          
   IUNSCR =        1    unscreen: 0-lin 1-nonlin 2-no                                               
   RPACOR =    2.000    partial core radius                                                         
   POMASS =  195.080; ZVAL   =   16.000    mass and valenz                                          
   RCORE  =    2.200    outmost cutoff radius                                                       
   RWIGS  =    2.200; RWIGS  =    1.164    wigner-seitz radius (au A)                               
   ENMAX  =  294.607; ENMIN  =  220.955 eV                                                          
   ICORE  =        3    local potential                                                             
   LCOR   =        T    correct aug charges                                                         
   LPAW   =        T    paw PP                                                                      
   EAUG   =  527.014                                                                                
   DEXC   =    0.000                                                                                
   RMAX   =    2.247    core radius for proj-oper                                                   
   RAUG   =    1.300    factor for augmentation sphere                                              
   RDEP   =    2.279    radius for radial grids                                                     
   RDEPT  =    1.878    core radius for aug-charge                                                  
                                                                                                    
   Atomic configuration                                                                             
   16 entries                                                                                       
     n  l   j            E        occ.                                                              
     1  0  0.50    -78401.1885   2.0000                                                             
     2  0  0.50    -13770.7750   2.0000                                                             
     2  1  1.50    -11931.0468   6.0000                                                             
     3  0  0.50     -3234.7234   2.0000                                                             
     3  1  1.50     -2699.2216   6.0000                                                             
     3  2  2.50     -2119.5714  10.0000                                                             
     4  0  0.50      -695.1528   2.0000                                                             
     4  1  1.50      -519.6034   6.0000                                                             
     4  2  2.50      -306.6786  10.0000                                                             
     4  3  3.50       -70.1041  14.0000                                                             
     5  0  0.50      -101.7747   2.0000                                                             
     5  1  1.50       -55.9873   6.0000                                                             
     6  1  1.50        -6.8029   0.0000                                                             
     5  2  2.50        -6.1423   9.0000                                                             
     6  0  0.50        -5.6573   1.0000                                                             
     5  3  2.50        -1.3606   0.0000                                                             
   Description                                                                                      
     l       E           TYP  RCUT    TYP  RCUT                                                     
     1    -55.9873477     23  2.000                                                                 
     1     27.2116520     23  2.000                                                                 
     2     -6.1423404     23  2.200                                                                 
     2     -4.6754623     23  2.200                                                                 
     0     -5.6573207     23  2.200                                                                 
     0     47.6203910     23  2.200                                                                 
     3      6.8029130     23  2.200                                                                 
  local pseudopotential read in
  partial core-charges read in
  partial kinetic energy density read in
  atomic valenz-charges read in
  non local Contribution for L=            1  read in
    real space projection operators read in
  non local Contribution for L=            1  read in
    real space projection operators read in
  non local Contribution for L=            2  read in
    real space projection operators read in
  non local Contribution for L=            2  read in
    real space projection operators read in
  non local Contribution for L=            0  read in
    real space projection operators read in
  non local Contribution for L=            0  read in
    real space projection operators read in
    PAW grid and wavefunctions read in
 
   number of l-projection  operators is LMAX  =            6
   number of lm-projection operators is LMMAX =           18
 
 -----------------------------------------------------------------------------
|                                                                             |
|               ----> ADVICE to this user running VASP <----                  |
|                                                                             |
|     You have a (more or less) 'small supercell' and for smaller cells       |
|     it is recommended to use the reciprocal-space projection scheme!        |
|     The real-space optimization is not efficient for small cells and it     |
|     is also less accurate ...                                               |
|     Therefore, set LREAL=.FALSE. in the INCAR file.                         |
|                                                                             |
 -----------------------------------------------------------------------------

 Optimization of the real space projectors (new method)

 maximal supplied QI-value         = 17.01
 optimisation between [QCUT,QGAM] = [ 11.57, 23.30] = [ 37.45,152.03] Ry 
 Optimized for a Real-space Cutoff    1.45 Angstroem

   l    n(q)    QCUT    max X(q) W(low)/X(q) W(high)/X(q)  e(spline) 
   1     10    11.565     2.562    0.35E-04    0.59E-04    0.63E-07
   1     10    11.565     3.505    0.10E-03    0.15E-03    0.18E-06
   2      9    11.565    75.314    0.14E-03    0.66E-04    0.16E-06
   2      9    11.565    69.548    0.14E-03    0.66E-04    0.16E-06
   0     10    11.565    24.655    0.77E-04    0.17E-04    0.11E-06
   0     10    11.565    11.003    0.52E-04    0.14E-04    0.85E-07
  PAW_PBE Pt_pv 12Dec2005               :
 energy of atom  1       EATOM=-2428.2504
 kinetic energy error for atom=    0.0133 (will be added to EATOM!!)
 
 
 POSCAR: Platinum (Pt) Crystal
  positions in direct lattice
  velocities in cartesian coordinates
 exchange correlation table for  LEXCH =        8
   RHO(1)=    0.500       N(1)  =     2000
   RHO(2)=  100.500       N(2)  =     4000
 


--------------------------------------------------------------------------------------------------------


 ion  position               nearest neighbor table
   1  0.458  0.464  0.559-   4 2.50   2 2.51   3 2.51
   2  0.625  0.463  0.559-   1 2.51   4 2.51
   3  0.375  0.599  0.559-   4 2.51   1 2.51
   4  0.542  0.599  0.559-   1 2.50   3 2.51   2 2.51
 

IMPORTANT INFORMATION: All symmetrisations will be switched off!
NOSYMM: (Re-)initialisation of all symmetry stuff for point group C_1.


----------------------------------------------------------------------------------------

                                     Primitive cell                                     

  volume of cell :    4080.0000

  direct lattice vectors                    reciprocal lattice vectors
    15.000000000  0.000000000  0.000000000     0.066666667  0.000000000  0.000000000
     0.000000000 16.000000000  0.000000000     0.000000000  0.062500000  0.000000000
     0.000000000  0.000000000 17.000000000     0.000000000  0.000000000  0.058823529

  length of vectors
    15.000000000 16.000000000 17.000000000     0.066666667  0.062500000  0.058823529

  position of ions in fractional coordinates (direct lattice)
     0.458337966  0.463509697  0.558799430
     0.625486911  0.463190503  0.558863451
     0.374541307  0.599338274  0.558817438
     0.541633816  0.598961526  0.558813799

  ion indices of the primitive-cell ions
   primitive index   ion index
                 1           1
                 2           2
                 3           3
                 4           4

----------------------------------------------------------------------------------------

 
 
 KPOINTS: Kpoints                                 

Automatic generation of k-mesh.
 Grid dimensions read from file:
 generate k-points for:    4    4    4

 Generating k-lattice:

  Cartesian coordinates                     Fractional coordinates (reciprocal lattice)
     0.016666667  0.000000000  0.000000000     0.250000000  0.000000000  0.000000000
     0.000000000  0.015625000  0.000000000     0.000000000  0.250000000  0.000000000
     0.000000000  0.000000000  0.014705882     0.000000000  0.000000000  0.250000000

  Length of vectors
     0.016666667  0.015625000  0.014705882

  Shift w.r.t. Gamma in fractional coordinates (k-lattice)
     0.000000000  0.000000000  0.000000000

 
 Subroutine IBZKPT returns following result:
 ===========================================
 
 Found     36 irreducible k-points:
 
 Following reciprocal coordinates:
            Coordinates               Weight
  0.000000  0.000000  0.000000      1.000000
  0.250000  0.000000  0.000000      2.000000
  0.500000  0.000000  0.000000      1.000000
  0.000000  0.250000  0.000000      2.000000
  0.250000  0.250000  0.000000      2.000000
  0.250000 -0.250000  0.000000      2.000000
  0.500000  0.250000  0.000000      2.000000
  0.000000  0.500000  0.000000      1.000000
  0.250000  0.500000  0.000000      2.000000
  0.500000  0.500000  0.000000      1.000000
  0.000000  0.000000  0.250000      2.000000
  0.250000  0.000000  0.250000      2.000000
  0.250000  0.000000 -0.250000      2.000000
  0.500000  0.000000  0.250000      2.000000
  0.000000  0.250000  0.250000      2.000000
  0.000000  0.250000 -0.250000      2.000000
  0.250000  0.250000  0.250000      2.000000
  0.250000 -0.250000 -0.250000      2.000000
 -0.250000  0.250000 -0.250000      2.000000
 -0.250000 -0.250000  0.250000      2.000000
  0.500000  0.250000  0.250000      2.000000
  0.500000  0.250000 -0.250000      2.000000
  0.000000  0.500000  0.250000      2.000000
  0.250000  0.500000  0.250000      2.000000
  0.250000  0.500000 -0.250000      2.000000
  0.500000  0.500000  0.250000      2.000000
  0.000000  0.000000  0.500000      1.000000
  0.250000  0.000000  0.500000      2.000000
  0.500000  0.000000  0.500000      1.000000
  0.000000  0.250000  0.500000      2.000000
  0.250000  0.250000  0.500000      2.000000
  0.250000 -0.250000  0.500000      2.000000
  0.500000  0.250000  0.500000      2.000000
  0.000000  0.500000  0.500000      1.000000
  0.250000  0.500000  0.500000      2.000000
  0.500000  0.500000  0.500000      1.000000
 
 Following cartesian coordinates:
            Coordinates               Weight
  0.000000  0.000000  0.000000      1.000000
  0.016667  0.000000  0.000000      2.000000
  0.033333  0.000000  0.000000      1.000000
  0.000000  0.015625  0.000000      2.000000
  0.016667  0.015625  0.000000      2.000000
  0.016667 -0.015625  0.000000      2.000000
  0.033333  0.015625  0.000000      2.000000
  0.000000  0.031250  0.000000      1.000000
  0.016667  0.031250  0.000000      2.000000
  0.033333  0.031250  0.000000      1.000000
  0.000000  0.000000  0.014706      2.000000
  0.016667  0.000000  0.014706      2.000000
  0.016667  0.000000 -0.014706      2.000000
  0.033333  0.000000  0.014706      2.000000
  0.000000  0.015625  0.014706      2.000000
  0.000000  0.015625 -0.014706      2.000000
  0.016667  0.015625  0.014706      2.000000
  0.016667 -0.015625 -0.014706      2.000000
 -0.016667  0.015625 -0.014706      2.000000
 -0.016667 -0.015625  0.014706      2.000000
  0.033333  0.015625  0.014706      2.000000
  0.033333  0.015625 -0.014706      2.000000
  0.000000  0.031250  0.014706      2.000000
  0.016667  0.031250  0.014706      2.000000
  0.016667  0.031250 -0.014706      2.000000
  0.033333  0.031250  0.014706      2.000000
  0.000000  0.000000  0.029412      1.000000
  0.016667  0.000000  0.029412      2.000000
  0.033333  0.000000  0.029412      1.000000
  0.000000  0.015625  0.029412      2.000000
  0.016667  0.015625  0.029412      2.000000
  0.016667 -0.015625  0.029412      2.000000
  0.033333  0.015625  0.029412      2.000000
  0.000000  0.031250  0.029412      1.000000
  0.016667  0.031250  0.029412      2.000000
  0.033333  0.031250  0.029412      1.000000
 


--------------------------------------------------------------------------------------------------------




 Dimension of arrays:
   k-points           NKPTS =     36   k-points in BZ     NKDIM =     36   number of bands    NBANDS=     38
   number of dos      NEDOS =    301   number of ions     NIONS =      4
   non local maximal  LDIM  =      6   non local SUM 2l+1 LMDIM =     18
   total plane-waves  NPLWV = ******
   max r-space proj   IRMAX =   5304   max aug-charges    IRDMAX=  14330
   dimension x,y,z NGX =   112 NGY =  120 NGZ =  126
   dimension x,y,z NGXF=   224 NGYF=  240 NGZF=  252
   support grid    NGXF=   224 NGYF=  240 NGZF=  252
   ions per type =               4
   NGX,Y,Z   is equivalent  to a cutoff of  12.41, 12.47, 12.32 a.u.
   NGXF,Y,Z  is equivalent  to a cutoff of  24.83, 24.94, 24.64 a.u.

 SYSTEM =  unknown system                          
 POSCAR =  Platinum (Pt) Crystal                   

 Startparameter for this run:
   NWRITE =      2    write-flag & timer
   PREC   = accura    normal or accurate (medium, high low for compatibility)
   ISTART =      0    job   : 0-new  1-cont  2-samecut
   ICHARG =      1    charge: 1-file 2-atom 10-const
   ISPIN  =      2    spin polarized calculation?
   LNONCOLLINEAR =      F non collinear calculations
   LSORBIT =      F    spin-orbit coupling
   INIWAV =      1    electr: 0-lowe 1-rand  2-diag
   LASPH  =      F    aspherical Exc in radial PAW
 Electronic Relaxation 1
   ENCUT  =  520.0 eV  38.22 Ry    6.18 a.u.  27.89 29.75 31.61*2*pi/ulx,y,z
   ENINI  =  520.0     initial cutoff
   ENAUG  =  527.0 eV  augmentation charge cutoff
   NELM   =    100;   NELMIN=  2; NELMDL= -5     # of ELM steps 
   EDIFF  = 0.1E-04   stopping-criterion for ELM
   LREAL  =      T    real-space projection
   NLSPLINE    = F    spline interpolate recip. space projectors
   LCOMPAT=      F    compatible to vasp.4.4
   GGA_COMPAT  = T    GGA compatible to vasp.4.4-vasp.4.6
   LMAXPAW     = -100 max onsite density
   LMAXMIX     =    2 max onsite mixed and CHGCAR
   VOSKOWN=      0    Vosko Wilk Nusair interpolation
   ROPT   =   -0.00025
 Ionic relaxation
   EDIFFG = -.3E-01   stopping-criterion for IOM
   NSW    =    150    number of steps for IOM
   NBLOCK =      1;   KBLOCK =    150    inner block; outer block 
   IBRION =      2    ionic relax: 0-MD 1-quasi-New 2-CG
   NFREE  =      1    steps in history (QN), initial steepest desc. (CG)
   ISIF   =      2    stress and relaxation
   IWAVPR =     11    prediction:  0-non 1-charg 2-wave 3-comb
   ISYM   =      0    0-nonsym 1-usesym 2-fastsym
   LCORR  =      T    Harris-Foulkes like correction to forces

   POTIM  = 0.5000    time-step for ionic-motion
   TEIN   =    0.0    initial temperature
   TEBEG  =    0.0;   TEEND  =   0.0 temperature during run
   SMASS  =  -3.00    Nose mass-parameter (am)
   estimated Nose-frequenzy (Omega)   =  0.10E-29 period in steps = 0.13E+47 mass=  -0.514E-26a.u.
   SCALEE = 1.0000    scale energy and forces
   NPACO  =    256;   APACO  = 10.0  distance and # of slots for P.C.
   PSTRESS=    0.0 pullay stress

  Mass of Ions in am
   POMASS = 195.08
  Ionic Valenz
   ZVAL   =  16.00
  Atomic Wigner-Seitz radii
   RWIGS  =  -1.00
  virtual crystal weights 
   VCA    =   1.00
   NELECT =      64.0000    total number of electrons
   NUPDOWN=      -1.0000    fix difference up-down

 DOS related values:
   EMIN   =  10.00;   EMAX   =-10.00  energy-range for DOS
   EFERMI =   0.00
   ISMEAR =     0;   SIGMA  =   0.05  broadening in eV -4-tet -1-fermi 0-gaus

 Electronic relaxation 2 (details)
   IALGO  =     58    algorithm
   LDIAG  =      T    sub-space diagonalisation (order eigenvalues)
   LSUBROT=      F    optimize rotation matrix (better conditioning)
   TURBO    =      0    0=normal 1=particle mesh
   IRESTART =      0    0=no restart 2=restart with 2 vectors
   NREBOOT  =      0    no. of reboots
   NMIN     =      0    reboot dimension
   EREF     =   0.00    reference energy to select bands
   IMIX   =      4    mixing-type and parameters
     AMIX     =   0.40;   BMIX     =  1.00
     AMIX_MAG =   1.60;   BMIX_MAG =  1.00
     AMIN     =   0.10
     WC   =   100.;   INIMIX=   1;  MIXPRE=   1;  MAXMIX= -45

 Intra band minimization:
   WEIMIN = 0.0010     energy-eigenvalue tresh-hold
   EBREAK =  0.66E-07  absolut break condition
   DEPER  =   0.30     relativ break condition  

   TIME   =   0.40     timestep for ELM

  volume/ion in A,a.u.               =    1020.00      6883.30
  Fermi-wavevector in a.u.,A,eV,Ry     =   0.409809  0.774427  2.285008  0.167943
  Thomas-Fermi vector in A             =   1.365038
 
 Write flags
   LWAVE        =      F    write WAVECAR
   LDOWNSAMPLE  =      F    k-point downsampling of WAVECAR
   LCHARG       =      T    write CHGCAR
   LVTOT        =      F    write LOCPOT, total local potential
   LVHAR        =      F    write LOCPOT, Hartree potential only
   LELF         =      F    write electronic localiz. function (ELF)
   LORBIT       =     11    0 simple, 1 ext, 2 COOP (PROOUT), +10 PAW based schemes


 Dipole corrections
   LMONO  =      F    monopole corrections only (constant potential shift)
   LDIPOL =      F    correct potential (dipole corrections)
   IDIPOL =      0    1-x, 2-y, 3-z, 4-all directions 
   EPSILON=  1.0000000 bulk dielectric constant

 Exchange correlation treatment:
   GGA     =    --    GGA type
   LEXCH   =     8    internal setting for exchange type
   LIBXC   =     F    Libxc                    
   VOSKOWN =     0    Vosko Wilk Nusair interpolation
   LHFCALC =     F    Hartree Fock is set to
   LHFONE  =     F    Hartree Fock one center treatment
   AEXX    =    0.0000 exact exchange contribution

 Linear response parameters
   LEPSILON=     F    determine dielectric tensor
   LRPA    =     F    only Hartree local field effects (RPA)
   LNABLA  =     F    use nabla operator in PAW spheres
   LVEL    =     F    velocity operator in full k-point grid
   CSHIFT  =0.1000    complex shift for real part using Kramers Kronig
   OMEGAMAX=  -1.0    maximum frequency
   DEG_THRESHOLD= 0.2000000E-02 threshold for treating states as degnerate
   RTIME   =   -0.100 relaxation time in fs
  (WPLASMAI=    0.000 imaginary part of plasma frequency in eV, 0.658/RTIME)
   DFIELD  = 0.0000000 0.0000000 0.0000000 field for delta impulse in time
 
  Optional k-point grid parameters
   LKPOINTS_OPT  =     F    use optional k-point grid
   KPOINTS_OPT_MODE=     1    mode for optional k-point grid
 
 Orbital magnetization related:
   ORBITALMAG=     F  switch on orbital magnetization
   LCHIMAG   =     F  perturbation theory with respect to B field
   DQ        =  0.001000  dq finite difference perturbation B field
   LLRAUG    =     F  two centre corrections for induced B field



--------------------------------------------------------------------------------------------------------


 conjugate gradient relaxation of ions
 charge density and potential will be updated during run
 spin polarized calculation
 Conjugate gradient for all bands (Freysoldt, et al. PRB 79, 241103 (2009))
 preconditioned conjugated gradient                                        
 perform sub-space diagonalisation
    before iterative eigenvector-optimisation
 modified Broyden-mixing scheme, WC =      100.0
 initial mixing is a Kerker type mixing with AMIX =  0.4000 and BMIX =      1.0000
 Hartree-type preconditioning will be used
 using additional bands             6
 real space projection scheme for non local part
 use partial core corrections
 no Harris-corrections to forces 
 use gradient corrections 
 use of overlap-Matrix (Vanderbilt PP)
 Gauss-broadening in eV      SIGMA  =   0.05


--------------------------------------------------------------------------------------------------------


  energy-cutoff  :      520.00
  volume of cell :     4080.00
      direct lattice vectors                 reciprocal lattice vectors
    15.000000000  0.000000000  0.000000000     0.066666667  0.000000000  0.000000000
     0.000000000 16.000000000  0.000000000     0.000000000  0.062500000  0.000000000
     0.000000000  0.000000000 17.000000000     0.000000000  0.000000000  0.058823529

  length of vectors
    15.000000000 16.000000000 17.000000000     0.066666667  0.062500000  0.058823529


 
 k-points in units of 2pi/SCALE and weight: Kpoints                                 
   0.00000000  0.00000000  0.00000000       0.016
   0.01666667  0.00000000  0.00000000       0.031
   0.03333333  0.00000000  0.00000000       0.016
   0.00000000  0.01562500  0.00000000       0.031
   0.01666667  0.01562500  0.00000000       0.031
   0.01666667 -0.01562500  0.00000000       0.031
   0.03333333  0.01562500  0.00000000       0.031
   0.00000000  0.03125000  0.00000000       0.016
   0.01666667  0.03125000  0.00000000       0.031
   0.03333333  0.03125000  0.00000000       0.016
   0.00000000  0.00000000  0.01470588       0.031
   0.01666667  0.00000000  0.01470588       0.031
   0.01666667  0.00000000 -0.01470588       0.031
   0.03333333  0.00000000  0.01470588       0.031
   0.00000000  0.01562500  0.01470588       0.031
   0.00000000  0.01562500 -0.01470588       0.031
   0.01666667  0.01562500  0.01470588       0.031
   0.01666667 -0.01562500 -0.01470588       0.031
  -0.01666667  0.01562500 -0.01470588       0.031
  -0.01666667 -0.01562500  0.01470588       0.031
   0.03333333  0.01562500  0.01470588       0.031
   0.03333333  0.01562500 -0.01470588       0.031
   0.00000000  0.03125000  0.01470588       0.031
   0.01666667  0.03125000  0.01470588       0.031
   0.01666667  0.03125000 -0.01470588       0.031
   0.03333333  0.03125000  0.01470588       0.031
   0.00000000  0.00000000  0.02941176       0.016
   0.01666667  0.00000000  0.02941176       0.031
   0.03333333  0.00000000  0.02941176       0.016
   0.00000000  0.01562500  0.02941176       0.031
   0.01666667  0.01562500  0.02941176       0.031
   0.01666667 -0.01562500  0.02941176       0.031
   0.03333333  0.01562500  0.02941176       0.031
   0.00000000  0.03125000  0.02941176       0.016
   0.01666667  0.03125000  0.02941176       0.031
   0.03333333  0.03125000  0.02941176       0.016
 
 k-points in reciprocal lattice and weights: Kpoints                                 
   0.00000000  0.00000000  0.00000000       0.016
   0.25000000  0.00000000  0.00000000       0.031
   0.50000000  0.00000000  0.00000000       0.016
   0.00000000  0.25000000  0.00000000       0.031
   0.25000000  0.25000000  0.00000000       0.031
   0.25000000 -0.25000000  0.00000000       0.031
   0.50000000  0.25000000  0.00000000       0.031
   0.00000000  0.50000000  0.00000000       0.016
   0.25000000  0.50000000  0.00000000       0.031
   0.50000000  0.50000000  0.00000000       0.016
   0.00000000  0.00000000  0.25000000       0.031
   0.25000000  0.00000000  0.25000000       0.031
   0.25000000  0.00000000 -0.25000000       0.031
   0.50000000  0.00000000  0.25000000       0.031
   0.00000000  0.25000000  0.25000000       0.031
   0.00000000  0.25000000 -0.25000000       0.031
   0.25000000  0.25000000  0.25000000       0.031
   0.25000000 -0.25000000 -0.25000000       0.031
  -0.25000000  0.25000000 -0.25000000       0.031
  -0.25000000 -0.25000000  0.25000000       0.031
   0.50000000  0.25000000  0.25000000       0.031
   0.50000000  0.25000000 -0.25000000       0.031
   0.00000000  0.50000000  0.25000000       0.031
   0.25000000  0.50000000  0.25000000       0.031
   0.25000000  0.50000000 -0.25000000       0.031
   0.50000000  0.50000000  0.25000000       0.031
   0.00000000  0.00000000  0.50000000       0.016
   0.25000000  0.00000000  0.50000000       0.031
   0.50000000  0.00000000  0.50000000       0.016
   0.00000000  0.25000000  0.50000000       0.031
   0.25000000  0.25000000  0.50000000       0.031
   0.25000000 -0.25000000  0.50000000       0.031
   0.50000000  0.25000000  0.50000000       0.031
   0.00000000  0.50000000  0.50000000       0.016
   0.25000000  0.50000000  0.50000000       0.031
   0.50000000  0.50000000  0.50000000       0.016
 
 position of ions in fractional coordinates (direct lattice) 
   0.45833797  0.46350970  0.55879943
   0.62548691  0.46319050  0.55886345
   0.37454131  0.59933827  0.55881744
   0.54163382  0.59896153  0.55881380
 
 position of ions in cartesian coordinates  (Angst):
   6.87506949  7.41615516  9.49959031
   9.38230367  7.41104805  9.50067867
   5.61811960  9.58941238  9.49989644
   8.12450724  9.58338441  9.49983458
 


--------------------------------------------------------------------------------------------------------


 k-point   1 :   0.0000 0.0000 0.0000  plane waves:  109903
 k-point   2 :   0.2500 0.0000 0.0000  plane waves:  109904
 k-point   3 :   0.5000 0.0000 0.0000  plane waves:  109892
 k-point   4 :   0.0000 0.2500 0.0000  plane waves:  109809
 k-point   5 :   0.2500 0.2500 0.0000  plane waves:  109891
 k-point   6 :   0.2500-0.2500 0.0000  plane waves:  109891
 k-point   7 :   0.5000 0.2500 0.0000  plane waves:  109842
 k-point   8 :   0.0000 0.5000 0.0000  plane waves:  109804
 k-point   9 :   0.2500 0.5000 0.0000  plane waves:  109832
 k-point  10 :   0.5000 0.5000 0.0000  plane waves:  109900
 k-point  11 :   0.0000 0.0000 0.2500  plane waves:  109863
 k-point  12 :   0.2500 0.0000 0.2500  plane waves:  109860
 k-point  13 :   0.2500 0.0000-0.2500  plane waves:  109860
 k-point  14 :   0.5000 0.0000 0.2500  plane waves:  109856
 k-point  15 :   0.0000 0.2500 0.2500  plane waves:  109870
 k-point  16 :   0.0000 0.2500-0.2500  plane waves:  109870
 k-point  17 :   0.2500 0.2500 0.2500  plane waves:  109854
 k-point  18 :   0.2500-0.2500-0.2500  plane waves:  109854
 k-point  19 :  -0.2500 0.2500-0.2500  plane waves:  109854
 k-point  20 :  -0.2500-0.2500 0.2500  plane waves:  109854
 k-point  21 :   0.5000 0.2500 0.2500  plane waves:  109856
 k-point  22 :   0.5000 0.2500-0.2500  plane waves:  109856
 k-point  23 :   0.0000 0.5000 0.2500  plane waves:  109870
 k-point  24 :   0.2500 0.5000 0.2500  plane waves:  109866
 k-point  25 :   0.2500 0.5000-0.2500  plane waves:  109866
 k-point  26 :   0.5000 0.5000 0.2500  plane waves:  109900
 k-point  27 :   0.0000 0.0000 0.5000  plane waves:  109848
 k-point  28 :   0.2500 0.0000 0.5000  plane waves:  109800
 k-point  29 :   0.5000 0.0000 0.5000  plane waves:  109860
 k-point  30 :   0.0000 0.2500 0.5000  plane waves:  109836
 k-point  31 :   0.2500 0.2500 0.5000  plane waves:  109842
 k-point  32 :   0.2500-0.2500 0.5000  plane waves:  109842
 k-point  33 :   0.5000 0.2500 0.5000  plane waves:  109888
 k-point  34 :   0.0000 0.5000 0.5000  plane waves:  109904
 k-point  35 :   0.2500 0.5000 0.5000  plane waves:  109892
 k-point  36 :   0.5000 0.5000 0.5000  plane waves:  109840

 maximum and minimum number of plane-waves per node :    109904   109800

 maximum number of plane-waves:    109904
 maximum index in each direction: 
   IXMAX=   28   IYMAX=   29   IZMAX=   31
   IXMIN=  -28   IYMIN=  -30   IZMIN=  -32


 serial   3D FFT for wavefunctions
 parallel 3D FFT for charge:
    minimum data exchange during FFTs selected (reduces bandwidth)


 total amount of memory used by VASP MPI-rank0  8117480. kBytes
=======================================================================

   base      :      30000. kBytes
   nonlr-proj:       3587. kBytes
   fftplans  :     235681. kBytes
   grid      :     626626. kBytes
   one-center:        124. kBytes
   wavefun   :    7221462. kBytes
 
     INWAV:  cpu time      0.0001: real time      0.0003
 Broyden mixing: mesh for mixing (old mesh)
   NGX = 55   NGY = 59   NGZ = 63
  (NGX  =224   NGY  =240   NGZ  =252)
  gives a total of 204435 points

 initial charge density was supplied:
 number of electron      63.9999987 magnetization      -3.9999507
 keeping initial charge density in first step


--------------------------------------------------------------------------------------------------------


 Maximum index for non-local projection operator          5115
 Maximum index for augmentation-charges          6870 (set IRDMAX)


--------------------------------------------------------------------------------------------------------


 First call to EWALD:  gamma=   0.111
 Maximum number of real-space cells 3x 3x 3
 Maximum number of reciprocal cells 3x 3x 3

    FEWALD:  cpu time      0.0007: real time      0.0007


--------------------------------------- Iteration      1(   1)  ---------------------------------------


    POTLOK:  cpu time      0.2692: real time      0.2710
    SETDIJ:  cpu time      0.0295: real time      0.0296
    TRIAL :  cpu time     11.1740: real time     11.1315
    CORREC:  cpu time      0.0014: real time      0.0014
    --------------------------------------------
      LOOP:  cpu time     13.1425: real time     13.1039

 eigenvalue-minimisations  :  7632
 total energy-change (2. order) : 0.5789298E+03  (-0.2217831E+04)
 number of electron      63.9999987 magnetization      -3.9999507
 augmentation part       63.9999987 magnetization      -3.9999507

 Free energy of the ion-electron system (eV)
  ---------------------------------------------------
  alpha Z        PSCENC =         9.40909239
  Ewald energy   TEWEN  =      3096.86607700
  -Hartree energ DENC   =    -11581.28597236
  -exchange      EXHF   =         0.00000000
  -V(xc)+E(xc)   XCENC  =       246.72922669
  PAW double counting   =      8964.09280397    -8833.68485536
  entropy T*S    EENTRO =        -0.01544211
  eigenvalues    EBANDS =     -1036.12943870
  atomic energy  EATOM  =      9712.94829911
  ---------------------------------------------------
  free energy    TOTEN  =       578.92979063 eV

  energy without entropy =      578.94523274  energy(sigma->0) =      578.93751169


--------------------------------------------------------------------------------------------------------




--------------------------------------- Iteration      1(   2)  ---------------------------------------


    TRIAL :  cpu time     10.1847: real time     10.1436
    CORREC:  cpu time      0.0015: real time      0.0015
    --------------------------------------------
      LOOP:  cpu time     10.1864: real time     10.1456

 eigenvalue-minimisations  :  6872
 total energy-change (2. order) :-0.3498429E+03  (-0.3454780E+03)
 number of electron      63.9999987 magnetization      -3.9999507
 augmentation part       63.9999987 magnetization      -3.9999507

 Free energy of the ion-electron system (eV)
  ---------------------------------------------------
  alpha Z        PSCENC =         9.40909239
  Ewald energy   TEWEN  =      3096.86607700
  -Hartree energ DENC   =    -11581.28597236
  -exchange      EXHF   =         0.00000000
  -V(xc)+E(xc)   XCENC  =       246.72922669
  PAW double counting   =      8964.09280397    -8833.68485536
  entropy T*S    EENTRO =        -0.02266928
  eigenvalues    EBANDS =     -1385.96511396
  atomic energy  EATOM  =      9712.94829911
  ---------------------------------------------------
  free energy    TOTEN  =       229.08688820 eV

  energy without entropy =      229.10955748  energy(sigma->0) =      229.09822284


--------------------------------------------------------------------------------------------------------




--------------------------------------- Iteration      1(   3)  ---------------------------------------


    TRIAL :  cpu time     13.3742: real time     13.3219
    CORREC:  cpu time      0.0013: real time      0.0013
    --------------------------------------------
      LOOP:  cpu time     13.3758: real time     13.3236

 eigenvalue-minimisations  :  9648
 total energy-change (2. order) :-0.1467988E+03  (-0.1414343E+03)
 number of electron      63.9999987 magnetization      -3.9999507
 augmentation part       63.9999987 magnetization      -3.9999507

 Free energy of the ion-electron system (eV)
  ---------------------------------------------------
  alpha Z        PSCENC =         9.40909239
  Ewald energy   TEWEN  =      3096.86607700
  -Hartree energ DENC   =    -11581.28597236
  -exchange      EXHF   =         0.00000000
  -V(xc)+E(xc)   XCENC  =       246.72922669
  PAW double counting   =      8964.09280397    -8833.68485536
  entropy T*S    EENTRO =        -0.00720104
  eigenvalues    EBANDS =     -1532.77935211
  atomic energy  EATOM  =      9712.94829911
  ---------------------------------------------------
  free energy    TOTEN  =        82.28811829 eV

  energy without entropy =       82.29531933  energy(sigma->0) =       82.29171881


--------------------------------------------------------------------------------------------------------




--------------------------------------- Iteration      1(   4)  ---------------------------------------


    TRIAL :  cpu time     11.0765: real time     11.0312
    CORREC:  cpu time      0.0011: real time      0.0011
    --------------------------------------------
      LOOP:  cpu time     11.0778: real time     11.0328

 eigenvalue-minimisations  :  7624
 total energy-change (2. order) :-0.7176401E+02  (-0.6806853E+02)
 number of electron      63.9999987 magnetization      -3.9999507
 augmentation part       63.9999987 magnetization      -3.9999507

 Free energy of the ion-electron system (eV)
  ---------------------------------------------------
  alpha Z        PSCENC =         9.40909239
  Ewald energy   TEWEN  =      3096.86607700
  -Hartree energ DENC   =    -11581.28597236
  -exchange      EXHF   =         0.00000000
  -V(xc)+E(xc)   XCENC  =       246.72922669
  PAW double counting   =      8964.09280397    -8833.68485536
  entropy T*S    EENTRO =        -0.00292242
  eigenvalues    EBANDS =     -1604.54764305
  atomic energy  EATOM  =      9712.94829911
  ---------------------------------------------------
  free energy    TOTEN  =        10.52410597 eV

  energy without entropy =       10.52702839  energy(sigma->0) =       10.52556718


--------------------------------------------------------------------------------------------------------




--------------------------------------- Iteration      1(   5)  ---------------------------------------


    TRIAL :  cpu time     11.7046: real time     11.6574
    CORREC:  cpu time      0.0013: real time      0.0013
    CHARGE:  cpu time      1.1871: real time      1.1891
    --------------------------------------------
      LOOP:  cpu time     12.8932: real time     12.8482

 eigenvalue-minimisations  :  8208
 total energy-change (2. order) :-0.1863316E+02  (-0.1601507E+02)
 number of electron      63.9999988 magnetization      -0.9383528
 augmentation part       16.0934839 magnetization      -0.1860533

 Free energy of the ion-electron system (eV)
  ---------------------------------------------------
  alpha Z        PSCENC =         9.40909239
  Ewald energy   TEWEN  =      3096.86607700
  -Hartree energ DENC   =    -11581.28597236
  -exchange      EXHF   =         0.00000000
  -V(xc)+E(xc)   XCENC  =       246.72922669
  PAW double counting   =      8964.09280397    -8833.68485536
  entropy T*S    EENTRO =        -0.01174357
  eigenvalues    EBANDS =     -1623.17198144
  atomic energy  EATOM  =      9712.94829911
  ---------------------------------------------------
  free energy    TOTEN  =        -8.10905357 eV

  energy without entropy =       -8.09731000  energy(sigma->0) =       -8.10318179


--------------------------------------------------------------------------------------------------------




--------------------------------------- Iteration      1(   6)  ---------------------------------------


    POTLOK:  cpu time      0.2499: real time      0.2496
    SETDIJ:  cpu time      0.0283: real time      0.0283
    TRIAL :  cpu time      8.7066: real time      8.6138
    CORREC:  cpu time      4.6343: real time      4.6368
    CHARGE:  cpu time      1.1663: real time      1.1681
    --------------------------------------------
      LOOP:  cpu time     14.7855: real time     14.6972

 eigenvalue-minimisations  :     0
 total energy-change (2. order) : 0.3796513E+01  (-0.4142131E+01)
 number of electron      63.9999988 magnetization      -0.7046009
 augmentation part       16.3803689 magnetization      -0.1568627

 Free energy of the ion-electron system (eV)
  ---------------------------------------------------
  alpha Z        PSCENC =         9.40909239
  Ewald energy   TEWEN  =      3096.86607700
  -Hartree energ DENC   =    -11353.69243729
  -exchange      EXHF   =         0.00000000
  -V(xc)+E(xc)   XCENC  =       242.03281509
  PAW double counting   =      8837.80660581    -8715.63333940
  entropy T*S    EENTRO =        -0.00825251
  eigenvalues    EBANDS =     -1834.03790995
  atomic energy  EATOM  =      9712.94829911
  ---------------------------------------------------
  free energy    TOTEN  =        -4.31254081 eV

  energy without entropy =       -4.30428830  energy(sigma->0) =       -4.30841456


--------------------------------------------------------------------------------------------------------




--------------------------------------- Iteration      1(   7)  ---------------------------------------


    POTLOK:  cpu time      0.2484: real time      0.2482
    SETDIJ:  cpu time      0.0282: real time      0.0282
    TRIAL :  cpu time      8.6970: real time      8.6046
    CORREC:  cpu time      4.6330: real time      4.6357
    CHARGE:  cpu time      1.1623: real time      1.1642
    --------------------------------------------
      LOOP:  cpu time     14.7695: real time     14.6827

 eigenvalue-minimisations  :     0
 total energy-change (2. order) :-0.4028608E+01  (-0.1003453E+01)
 number of electron      63.9999988 magnetization      -0.6034769
 augmentation part       16.3965582 magnetization      -0.1445237

 Free energy of the ion-electron system (eV)
  ---------------------------------------------------
  alpha Z        PSCENC =         9.40909239
  Ewald energy   TEWEN  =      3096.86607700
  -Hartree energ DENC   =    -11524.06719635
  -exchange      EXHF   =         0.00000000
  -V(xc)+E(xc)   XCENC  =       245.15054141
  PAW double counting   =      8833.12836505    -8707.09798999
  entropy T*S    EENTRO =        -0.00521556
  eigenvalues    EBANDS =     -1674.67008503
  atomic energy  EATOM  =      9712.94829911
  ---------------------------------------------------
  free energy    TOTEN  =        -8.34114891 eV

  energy without entropy =       -8.33593335  energy(sigma->0) =       -8.33854113


--------------------------------------------------------------------------------------------------------




--------------------------------------- Iteration      1(   8)  ---------------------------------------


    POTLOK:  cpu time      0.2484: real time      0.2482
    SETDIJ:  cpu time      0.0287: real time      0.0288
    TRIAL :  cpu time      8.6922: real time      8.5995
    CORREC:  cpu time      4.6244: real time      4.6271
    CHARGE:  cpu time      1.1627: real time      1.1646
    --------------------------------------------
      LOOP:  cpu time     14.7568: real time     14.6686

 eigenvalue-minimisations  :     0
 total energy-change (2. order) :-0.1003461E+01  (-0.7191291E+00)
 number of electron      63.9999988 magnetization      -0.5755969
 augmentation part       16.3906147 magnetization      -0.1340005

 Free energy of the ion-electron system (eV)
  ---------------------------------------------------
  alpha Z        PSCENC =         9.40909239
  Ewald energy   TEWEN  =      3096.86607700
  -Hartree energ DENC   =    -11565.24849952
  -exchange      EXHF   =         0.00000000
  -V(xc)+E(xc)   XCENC  =       245.98600446
  PAW double counting   =      8829.23182223    -8701.89626291
  entropy T*S    EENTRO =        -0.00553495
  eigenvalues    EBANDS =     -1636.63592682
  atomic energy  EATOM  =      9712.94829911
  ---------------------------------------------------
  free energy    TOTEN  =        -9.34460962 eV

  energy without entropy =       -9.33907467  energy(sigma->0) =       -9.34184215


--------------------------------------------------------------------------------------------------------




--------------------------------------- Iteration      1(   9)  ---------------------------------------


    POTLOK:  cpu time      0.2484: real time      0.2481
    SETDIJ:  cpu time      0.0279: real time      0.0280
    TRIAL :  cpu time      8.6961: real time      8.6025
    CORREC:  cpu time      4.6341: real time      4.6367
    CHARGE:  cpu time      1.1611: real time      1.1629
    --------------------------------------------
      LOOP:  cpu time     14.7680: real time     14.6788

 eigenvalue-minimisations  :     0
 total energy-change (2. order) :-0.7191559E+00  (-0.3652378E+00)
 number of electron      63.9999988 magnetization      -0.6657386
 augmentation part       16.3754847 magnetization      -0.1412772

 Free energy of the ion-electron system (eV)
  ---------------------------------------------------
  alpha Z        PSCENC =         9.40909239
  Ewald energy   TEWEN  =      3096.86607700
  -Hartree energ DENC   =    -11570.36961947
  -exchange      EXHF   =         0.00000000
  -V(xc)+E(xc)   XCENC  =       246.14916156
  PAW double counting   =      8844.10378897    -8715.96029764
  entropy T*S    EENTRO =        -0.00709294
  eigenvalues    EBANDS =     -1633.20473252
  atomic energy  EATOM  =      9712.94829911
  ---------------------------------------------------
  free energy    TOTEN  =       -10.06376556 eV

  energy without entropy =      -10.05667261  energy(sigma->0) =      -10.06021908


--------------------------------------------------------------------------------------------------------




--------------------------------------- Iteration      1(  10)  ---------------------------------------


    POTLOK:  cpu time      0.2484: real time      0.2482
    SETDIJ:  cpu time      0.0284: real time      0.0284
    TRIAL :  cpu time      8.6958: real time      8.6021
    CORREC:  cpu time      4.6256: real time      4.6282
    CHARGE:  cpu time      1.1549: real time      1.1568
    --------------------------------------------
      LOOP:  cpu time     14.7533: real time     14.6643

 eigenvalue-minimisations  :     0
 total energy-change (2. order) :-0.3637387E+00  (-0.2950560E+00)
 number of electron      63.9999987 magnetization      -0.7190651
 augmentation part       16.3815331 magnetization      -0.1392085

 Free energy of the ion-electron system (eV)
  ---------------------------------------------------
  alpha Z        PSCENC =         9.40909239
  Ewald energy   TEWEN  =      3096.86607700
  -Hartree energ DENC   =    -11551.82215009
  -exchange      EXHF   =         0.00000000
  -V(xc)+E(xc)   XCENC  =       245.75226732
  PAW double counting   =      8866.33871085    -8738.12605442
  entropy T*S    EENTRO =        -0.00801292
  eigenvalues    EBANDS =     -1651.78665349
  atomic energy  EATOM  =      9712.94829911
  ---------------------------------------------------
  free energy    TOTEN  =       -10.42750427 eV

  energy without entropy =      -10.41949135  energy(sigma->0) =      -10.42349781


--------------------------------------------------------------------------------------------------------




--------------------------------------- Iteration      1(  11)  ---------------------------------------


    POTLOK:  cpu time      0.2485: real time      0.2483
    SETDIJ:  cpu time      0.0285: real time      0.0285
    TRIAL :  cpu time      8.7076: real time      8.6137
    CORREC:  cpu time      4.6355: real time      4.6380
    CHARGE:  cpu time      1.1567: real time      1.1585
    --------------------------------------------
      LOOP:  cpu time     14.7770: real time     14.6876

 eigenvalue-minimisations  :     0
 total energy-change (2. order) :-0.2878580E+00  (-0.3606198E+00)
 number of electron      63.9999987 magnetization      -0.7822984
 augmentation part       16.4238561 magnetization      -0.1367946

 Free energy of the ion-electron system (eV)
  ---------------------------------------------------
  alpha Z        PSCENC =         9.40909239
  Ewald energy   TEWEN  =      3096.86607700
  -Hartree energ DENC   =    -11543.02455167
  -exchange      EXHF   =         0.00000000
  -V(xc)+E(xc)   XCENC  =       245.60012488
  PAW double counting   =      8893.32538022    -8764.82687720
  entropy T*S    EENTRO =        -0.00755165
  eigenvalues    EBANDS =     -1661.00489404
  atomic energy  EATOM  =      9712.94829911
  ---------------------------------------------------
  free energy    TOTEN  =       -10.71536224 eV

  energy without entropy =      -10.70781059  energy(sigma->0) =      -10.71158642


--------------------------------------------------------------------------------------------------------




--------------------------------------- Iteration      1(  12)  ---------------------------------------


    POTLOK:  cpu time      0.2482: real time      0.2480
    SETDIJ:  cpu time      0.0285: real time      0.0285
    TRIAL :  cpu time      8.6918: real time      8.5984
    CORREC:  cpu time      4.6235: real time      4.6261
    CHARGE:  cpu time      1.1490: real time      1.1509
    --------------------------------------------
      LOOP:  cpu time     14.7413: real time     14.6524

 eigenvalue-minimisations  :     0
 total energy-change (2. order) :-0.2780207E+00  (-0.1975452E+00)
 number of electron      63.9999987 magnetization      -0.7812500
 augmentation part       16.4321820 magnetization      -0.1289879

 Free energy of the ion-electron system (eV)
  ---------------------------------------------------
  alpha Z        PSCENC =         9.40909239
  Ewald energy   TEWEN  =      3096.86607700
  -Hartree energ DENC   =    -11565.51714939
  -exchange      EXHF   =         0.00000000
  -V(xc)+E(xc)   XCENC  =       246.11451291
  PAW double counting   =      8926.44974115    -8797.05785917
  entropy T*S    EENTRO =        -0.00667442
  eigenvalues    EBANDS =     -1640.19854532
  atomic energy  EATOM  =      9712.94829911
  ---------------------------------------------------
  free energy    TOTEN  =       -10.99338296 eV

  energy without entropy =      -10.98670854  energy(sigma->0) =      -10.99004575


--------------------------------------------------------------------------------------------------------




--------------------------------------- Iteration      1(  13)  ---------------------------------------


    POTLOK:  cpu time      0.2496: real time      0.2494
    SETDIJ:  cpu time      0.0285: real time      0.0285
    TRIAL :  cpu time      8.6950: real time      8.6008
    CORREC:  cpu time      4.5980: real time      4.6007
    CHARGE:  cpu time      1.1329: real time      1.1348
    --------------------------------------------
      LOOP:  cpu time     14.7044: real time     14.6147

 eigenvalue-minimisations  :     0
 total energy-change (2. order) :-0.2005261E+00  (-0.2294598E+00)
 number of electron      63.9999987 magnetization      -0.7812437
 augmentation part       16.4107035 magnetization      -0.1288404

 Free energy of the ion-electron system (eV)
  ---------------------------------------------------
  alpha Z        PSCENC =         9.40909239
  Ewald energy   TEWEN  =      3096.86607700
  -Hartree energ DENC   =    -11577.15733324
  -exchange      EXHF   =         0.00000000
  -V(xc)+E(xc)   XCENC  =       246.33604553
  PAW double counting   =      8952.77941305    -8823.06949007
  entropy T*S    EENTRO =        -0.00627446
  eigenvalues    EBANDS =     -1629.29933839
  atomic energy  EATOM  =      9712.94829911
  ---------------------------------------------------
  free energy    TOTEN  =       -11.19390903 eV

  energy without entropy =      -11.18763457  energy(sigma->0) =      -11.19077180


--------------------------------------------------------------------------------------------------------




--------------------------------------- Iteration      1(  14)  ---------------------------------------


    POTLOK:  cpu time      0.2483: real time      0.2481
    SETDIJ:  cpu time      0.0283: real time      0.0283
    TRIAL :  cpu time      8.6954: real time      8.6027
    CORREC:  cpu time      4.5975: real time      4.6002
    CHARGE:  cpu time      1.1314: real time      1.1333
    --------------------------------------------
      LOOP:  cpu time     14.7012: real time     14.6131

 eigenvalue-minimisations  :     0
 total energy-change (2. order) :-0.2301782E+00  (-0.1865568E+00)
 number of electron      63.9999987 magnetization      -0.7812390
 augmentation part       16.3917501 magnetization      -0.1327701

 Free energy of the ion-electron system (eV)
  ---------------------------------------------------
  alpha Z        PSCENC =         9.40909239
  Ewald energy   TEWEN  =      3096.86607700
  -Hartree energ DENC   =    -11572.38544601
  -exchange      EXHF   =         0.00000000
  -V(xc)+E(xc)   XCENC  =       246.18596842
  PAW double counting   =      8968.34991815    -8838.78612983
  entropy T*S    EENTRO =        -0.00660712
  eigenvalues    EBANDS =     -1634.00559199
  atomic energy  EATOM  =      9712.94829911
  ---------------------------------------------------
  free energy    TOTEN  =       -11.42408722 eV

  energy without entropy =      -11.41748010  energy(sigma->0) =      -11.42078366


--------------------------------------------------------------------------------------------------------




--------------------------------------- Iteration      1(  15)  ---------------------------------------


    POTLOK:  cpu time      0.2487: real time      0.2484
    SETDIJ:  cpu time      0.0281: real time      0.0281
    TRIAL :  cpu time      8.6945: real time      8.6012
    CORREC:  cpu time      4.5949: real time      4.5975
    CHARGE:  cpu time      1.1325: real time      1.1343
    --------------------------------------------
      LOOP:  cpu time     14.6991: real time     14.6102

 eigenvalue-minimisations  :     0
 total energy-change (2. order) :-0.1865563E+00  (-0.1221725E+00)
 number of electron      63.9999987 magnetization      -0.7813448
 augmentation part       16.4007319 magnetization      -0.1377411

 Free energy of the ion-electron system (eV)
  ---------------------------------------------------
  alpha Z        PSCENC =         9.40909239
  Ewald energy   TEWEN  =      3096.86607700
  -Hartree energ DENC   =    -11563.06520026
  -exchange      EXHF   =         0.00000000
  -V(xc)+E(xc)   XCENC  =       245.98887834
  PAW double counting   =      8969.89656714    -8840.45598432
  entropy T*S    EENTRO =        -0.00712006
  eigenvalues    EBANDS =     -1643.19176582
  atomic energy  EATOM  =      9712.94829911
  ---------------------------------------------------
  free energy    TOTEN  =       -11.61064353 eV

  energy without entropy =      -11.60352347  energy(sigma->0) =      -11.60708350


--------------------------------------------------------------------------------------------------------




--------------------------------------- Iteration      1(  16)  ---------------------------------------


    POTLOK:  cpu time      0.2484: real time      0.2483
    SETDIJ:  cpu time      0.0281: real time      0.0281
    TRIAL :  cpu time      8.6960: real time      8.6021
    CORREC:  cpu time      4.6096: real time      4.6124
    CHARGE:  cpu time      1.1343: real time      1.1362
    --------------------------------------------
      LOOP:  cpu time     14.7167: real time     14.6276

 eigenvalue-minimisations  :     0
 total energy-change (2. order) :-0.1221715E+00  (-0.1072633E+00)
 number of electron      63.9999987 magnetization      -0.8621868
 augmentation part       16.4269094 magnetization      -0.1602244

 Free energy of the ion-electron system (eV)
  ---------------------------------------------------
  alpha Z        PSCENC =         9.40909239
  Ewald energy   TEWEN  =      3096.86607700
  -Hartree energ DENC   =    -11565.82908712
  -exchange      EXHF   =         0.00000000
  -V(xc)+E(xc)   XCENC  =       246.08100881
  PAW double counting   =      8957.64665044    -8827.93571732
  entropy T*S    EENTRO =        -0.00752543
  eigenvalues    EBANDS =     -1640.91201828
  atomic energy  EATOM  =      9712.94829911
  ---------------------------------------------------
  free energy    TOTEN  =       -11.73281502 eV

  energy without entropy =      -11.72528959  energy(sigma->0) =      -11.72905230


--------------------------------------------------------------------------------------------------------




--------------------------------------- Iteration      1(  17)  ---------------------------------------


    POTLOK:  cpu time      0.2484: real time      0.2482
    SETDIJ:  cpu time      0.0286: real time      0.0286
    TRIAL :  cpu time      8.6909: real time      8.5988
    CORREC:  cpu time      4.6038: real time      4.6068
    CHARGE:  cpu time      1.1368: real time      1.1387
    --------------------------------------------
      LOOP:  cpu time     14.7087: real time     14.6217

 eigenvalue-minimisations  :     0
 total energy-change (2. order) :-0.1043074E+00  (-0.7295381E-01)
 number of electron      63.9999987 magnetization      -0.9134873
 augmentation part       16.4342324 magnetization      -0.1755829

 Free energy of the ion-electron system (eV)
  ---------------------------------------------------
  alpha Z        PSCENC =         9.40909239
  Ewald energy   TEWEN  =      3096.86607700
  -Hartree energ DENC   =    -11579.09816755
  -exchange      EXHF   =         0.00000000
  -V(xc)+E(xc)   XCENC  =       246.37552919
  PAW double counting   =      8938.79182500    -8808.54331996
  entropy T*S    EENTRO =        -0.00781911
  eigenvalues    EBANDS =     -1628.57893222
  atomic energy  EATOM  =      9712.94829911
  ---------------------------------------------------
  free energy    TOTEN  =       -11.83712247 eV

  energy without entropy =      -11.82930336  energy(sigma->0) =      -11.83321291


--------------------------------------------------------------------------------------------------------




--------------------------------------- Iteration      1(  18)  ---------------------------------------


    POTLOK:  cpu time      0.2485: real time      0.2483
    SETDIJ:  cpu time      0.0286: real time      0.0287
    TRIAL :  cpu time      8.6921: real time      8.5990
    CORREC:  cpu time      4.6090: real time      4.6119
    CHARGE:  cpu time      1.1449: real time      1.1469
    --------------------------------------------
      LOOP:  cpu time     14.7234: real time     14.6353

 eigenvalue-minimisations  :     0
 total energy-change (2. order) :-0.7414505E-01  (-0.8616926E-01)
 number of electron      63.9999987 magnetization      -1.0625860
 augmentation part       16.4188464 magnetization      -0.2134357

 Free energy of the ion-electron system (eV)
  ---------------------------------------------------
  alpha Z        PSCENC =         9.40909239
  Ewald energy   TEWEN  =      3096.86607700
  -Hartree energ DENC   =    -11582.64678735
  -exchange      EXHF   =         0.00000000
  -V(xc)+E(xc)   XCENC  =       246.45058029
  PAW double counting   =      8926.30577110    -8795.89396651
  entropy T*S    EENTRO =        -0.00873787
  eigenvalues    EBANDS =     -1625.34251444
  atomic energy  EATOM  =      9712.94829911
  ---------------------------------------------------
  free energy    TOTEN  =       -11.91126751 eV

  energy without entropy =      -11.90252964  energy(sigma->0) =      -11.90689858


--------------------------------------------------------------------------------------------------------




--------------------------------------- Iteration      1(  19)  ---------------------------------------


    POTLOK:  cpu time      0.2486: real time      0.2484
    SETDIJ:  cpu time      0.0283: real time      0.0283
    TRIAL :  cpu time      8.6913: real time      8.5983
    CORREC:  cpu time      4.6125: real time      4.6155
    CHARGE:  cpu time      1.1488: real time      1.1507
    --------------------------------------------
      LOOP:  cpu time     14.7300: real time     14.6418

 eigenvalue-minimisations  :     0
 total energy-change (2. order) :-0.8719087E-01  (-0.9759835E-01)
 number of electron      63.9999987 magnetization      -1.4111496
 augmentation part       16.3968588 magnetization      -0.3005553

 Free energy of the ion-electron system (eV)
  ---------------------------------------------------
  alpha Z        PSCENC =         9.40909239
  Ewald energy   TEWEN  =      3096.86607700
  -Hartree energ DENC   =    -11573.64023841
  -exchange      EXHF   =         0.00000000
  -V(xc)+E(xc)   XCENC  =       246.27021774
  PAW double counting   =      8918.59779496    -8788.47151663
  entropy T*S    EENTRO =        -0.00638048
  eigenvalues    EBANDS =     -1633.96944667
  atomic energy  EATOM  =      9712.94829911
  ---------------------------------------------------
  free energy    TOTEN  =       -11.99845838 eV

  energy without entropy =      -11.99207790  energy(sigma->0) =      -11.99526814


--------------------------------------------------------------------------------------------------------




--------------------------------------- Iteration      1(  20)  ---------------------------------------


    POTLOK:  cpu time      0.2485: real time      0.2482
    SETDIJ:  cpu time      0.0285: real time      0.0286
    TRIAL :  cpu time      8.6894: real time      8.5961
    CORREC:  cpu time      4.6139: real time      4.6169
    CHARGE:  cpu time      1.1559: real time      1.1579
    --------------------------------------------
      LOOP:  cpu time     14.7365: real time     14.6483

 eigenvalue-minimisations  :     0
 total energy-change (2. order) :-0.8142965E-01  (-0.2985269E-01)
 number of electron      63.9999987 magnetization      -1.4964025
 augmentation part       16.3974972 magnetization      -0.3241475

 Free energy of the ion-electron system (eV)
  ---------------------------------------------------
  alpha Z        PSCENC =         9.40909239
  Ewald energy   TEWEN  =      3096.86607700
  -Hartree energ DENC   =    -11562.01419898
  -exchange      EXHF   =         0.00000000
  -V(xc)+E(xc)   XCENC  =       246.05094564
  PAW double counting   =      8914.18825517    -8784.56408353
  entropy T*S    EENTRO =        -0.00554657
  eigenvalues    EBANDS =     -1644.95789436
  atomic energy  EATOM  =      9712.94829911
  ---------------------------------------------------
  free energy    TOTEN  =       -12.07988803 eV

  energy without entropy =      -12.07434146  energy(sigma->0) =      -12.07711475


--------------------------------------------------------------------------------------------------------




--------------------------------------- Iteration      1(  21)  ---------------------------------------


    POTLOK:  cpu time      0.2484: real time      0.2481
    SETDIJ:  cpu time      0.0286: real time      0.0287
    TRIAL :  cpu time      8.6909: real time      8.5976
    CORREC:  cpu time      4.6164: real time      4.6192
    CHARGE:  cpu time      1.1524: real time      1.1542
    --------------------------------------------
      LOOP:  cpu time     14.7370: real time     14.6485

 eigenvalue-minimisations  :     0
 total energy-change (2. order) :-0.3357663E-01  (-0.4637195E-01)
 number of electron      63.9999987 magnetization      -1.5193568
 augmentation part       16.4110169 magnetization      -0.3335007

 Free energy of the ion-electron system (eV)
  ---------------------------------------------------
  alpha Z        PSCENC =         9.40909239
  Ewald energy   TEWEN  =      3096.86607700
  -Hartree energ DENC   =    -11563.83399373
  -exchange      EXHF   =         0.00000000
  -V(xc)+E(xc)   XCENC  =       246.08773155
  PAW double counting   =      8914.56060081    -8785.00163329
  entropy T*S    EENTRO =        -0.00347663
  eigenvalues    EBANDS =     -1643.14409193
  atomic energy  EATOM  =      9712.94829911
  ---------------------------------------------------
  free energy    TOTEN  =       -12.11346466 eV

  energy without entropy =      -12.10998803  energy(sigma->0) =      -12.11172635


--------------------------------------------------------------------------------------------------------




--------------------------------------- Iteration      1(  22)  ---------------------------------------


    POTLOK:  cpu time      0.2488: real time      0.2486
    SETDIJ:  cpu time      0.0285: real time      0.0286
    TRIAL :  cpu time      8.6955: real time      8.6020
    CORREC:  cpu time      4.6033: real time      4.6062
    CHARGE:  cpu time      1.1528: real time      1.1547
    --------------------------------------------
      LOOP:  cpu time     14.7293: real time     14.6408

 eigenvalue-minimisations  :     0
 total energy-change (2. order) :-0.4378155E-01  (-0.4540693E-01)
 number of electron      63.9999987 magnetization      -1.5243682
 augmentation part       16.4256182 magnetization      -0.3391704

 Free energy of the ion-electron system (eV)
  ---------------------------------------------------
  alpha Z        PSCENC =         9.40909239
  Ewald energy   TEWEN  =      3096.86607700
  -Hartree energ DENC   =    -11573.31448078
  -exchange      EXHF   =         0.00000000
  -V(xc)+E(xc)   XCENC  =       246.27925153
  PAW double counting   =      8918.98240034    -8789.21631641
  entropy T*S    EENTRO =        -0.00335839
  eigenvalues    EBANDS =     -1634.10809277
  atomic energy  EATOM  =      9712.94829911
  ---------------------------------------------------
  free energy    TOTEN  =       -12.15724621 eV

  energy without entropy =      -12.15388783  energy(sigma->0) =      -12.15556702


--------------------------------------------------------------------------------------------------------




--------------------------------------- Iteration      1(  23)  ---------------------------------------


    POTLOK:  cpu time      0.2483: real time      0.2480
    SETDIJ:  cpu time      0.0286: real time      0.0287
    TRIAL :  cpu time      8.6972: real time      8.6040
    CORREC:  cpu time      4.6132: real time      4.6160
    CHARGE:  cpu time      1.1241: real time      1.1259
    --------------------------------------------
      LOOP:  cpu time     14.7116: real time     14.6232

 eigenvalue-minimisations  :     0
 total energy-change (2. order) :-0.4550190E-01  (-0.4372641E-01)
 number of electron      63.9999987 magnetization      -1.5304716
 augmentation part       16.4252596 magnetization      -0.3447268

 Free energy of the ion-electron system (eV)
  ---------------------------------------------------
  alpha Z        PSCENC =         9.40909239
  Ewald energy   TEWEN  =      3096.86607700
  -Hartree energ DENC   =    -11582.15432142
  -exchange      EXHF   =         0.00000000
  -V(xc)+E(xc)   XCENC  =       246.47434051
  PAW double counting   =      8928.13996173    -8798.07596828
  entropy T*S    EENTRO =        -0.00353071
  eigenvalues    EBANDS =     -1625.80687077
  atomic energy  EATOM  =      9712.94829911
  ---------------------------------------------------
  free energy    TOTEN  =       -12.20274812 eV

  energy without entropy =      -12.19921741  energy(sigma->0) =      -12.20098277


--------------------------------------------------------------------------------------------------------




--------------------------------------- Iteration      1(  24)  ---------------------------------------


    POTLOK:  cpu time      0.2483: real time      0.2481
    SETDIJ:  cpu time      0.0280: real time      0.0281
    TRIAL :  cpu time      8.6888: real time      8.5956
    CORREC:  cpu time      4.6134: real time      4.6166
    CHARGE:  cpu time      1.1436: real time      1.1456
    --------------------------------------------
      LOOP:  cpu time     14.7225: real time     14.6345

 eigenvalue-minimisations  :     0
 total energy-change (2. order) :-0.4436069E-01  (-0.3081716E-01)
 number of electron      63.9999987 magnetization      -1.5312499
 augmentation part       16.4164620 magnetization      -0.3466003

 Free energy of the ion-electron system (eV)
  ---------------------------------------------------
  alpha Z        PSCENC =         9.40909239
  Ewald energy   TEWEN  =      3096.86607700
  -Hartree energ DENC   =    -11580.82707582
  -exchange      EXHF   =         0.00000000
  -V(xc)+E(xc)   XCENC  =       246.46582759
  PAW double counting   =      8940.32902281    -8810.17492478
  entropy T*S    EENTRO =        -0.00271326
  eigenvalues    EBANDS =     -1627.25989641
  atomic energy  EATOM  =      9712.94829911
  ---------------------------------------------------
  free energy    TOTEN  =       -12.24710881 eV

  energy without entropy =      -12.24439555  energy(sigma->0) =      -12.24575218


--------------------------------------------------------------------------------------------------------




--------------------------------------- Iteration      1(  25)  ---------------------------------------


    POTLOK:  cpu time      0.2493: real time      0.2491
    SETDIJ:  cpu time      0.0289: real time      0.0289
    TRIAL :  cpu time      8.6901: real time      8.5977
    CORREC:  cpu time      4.6196: real time      4.6226
    CHARGE:  cpu time      1.1516: real time      1.1536
    --------------------------------------------
      LOOP:  cpu time     14.7398: real time     14.6523

 eigenvalue-minimisations  :     0
 total energy-change (2. order) :-0.3030706E-01  (-0.4209629E-01)
 number of electron      63.9999987 magnetization      -1.5410808
 augmentation part       16.4060727 magnetization      -0.3494012

 Free energy of the ion-electron system (eV)
  ---------------------------------------------------
  alpha Z        PSCENC =         9.40909239
  Ewald energy   TEWEN  =      3096.86607700
  -Hartree energ DENC   =    -11574.49929175
  -exchange      EXHF   =         0.00000000
  -V(xc)+E(xc)   XCENC  =       246.33822727
  PAW double counting   =      8950.11969703    -8820.03950963
  entropy T*S    EENTRO =        -0.00381818
  eigenvalues    EBANDS =     -1633.41729403
  atomic energy  EATOM  =      9712.94829911
  ---------------------------------------------------
  free energy    TOTEN  =       -12.27741587 eV

  energy without entropy =      -12.27359768  energy(sigma->0) =      -12.27550678


--------------------------------------------------------------------------------------------------------




--------------------------------------- Iteration      1(  26)  ---------------------------------------


    POTLOK:  cpu time      0.2482: real time      0.2480
    SETDIJ:  cpu time      0.0286: real time      0.0286
    TRIAL :  cpu time      8.6976: real time      8.6046
    CORREC:  cpu time      4.6196: real time      4.6227
    CHARGE:  cpu time      1.1540: real time      1.1560
    --------------------------------------------
      LOOP:  cpu time     14.7482: real time     14.6604

 eigenvalue-minimisations  :     0
 total energy-change (2. order) :-0.4200023E-01  (-0.3082222E-01)
 number of electron      63.9999987 magnetization      -1.5660771
 augmentation part       16.4076621 magnetization      -0.3549300

 Free energy of the ion-electron system (eV)
  ---------------------------------------------------
  alpha Z        PSCENC =         9.40909239
  Ewald energy   TEWEN  =      3096.86607700
  -Hartree energ DENC   =    -11567.83774956
  -exchange      EXHF   =         0.00000000
  -V(xc)+E(xc)   XCENC  =       246.18736411
  PAW double counting   =      8958.43110694    -8828.48091423
  entropy T*S    EENTRO =        -0.00571855
  eigenvalues    EBANDS =     -1639.83887367
  atomic energy  EATOM  =      9712.94829911
  ---------------------------------------------------
  free energy    TOTEN  =       -12.31941610 eV

  energy without entropy =      -12.31369755  energy(sigma->0) =      -12.31655682


--------------------------------------------------------------------------------------------------------




--------------------------------------- Iteration      1(  27)  ---------------------------------------


    POTLOK:  cpu time      0.2482: real time      0.2479
    SETDIJ:  cpu time      0.0285: real time      0.0286
    TRIAL :  cpu time      8.6943: real time      8.6014
    CORREC:  cpu time      4.6154: real time      4.6184
    CHARGE:  cpu time      1.1515: real time      1.1535
    --------------------------------------------
      LOOP:  cpu time     14.7384: real time     14.6503

 eigenvalue-minimisations  :     0
 total energy-change (2. order) :-0.3058433E-01  (-0.3108863E-01)
 number of electron      63.9999987 magnetization      -1.6043849
 augmentation part       16.4192612 magnetization      -0.3627925

 Free energy of the ion-electron system (eV)
  ---------------------------------------------------
  alpha Z        PSCENC =         9.40909239
  Ewald energy   TEWEN  =      3096.86607700
  -Hartree energ DENC   =    -11569.01554707
  -exchange      EXHF   =         0.00000000
  -V(xc)+E(xc)   XCENC  =       246.20785428
  PAW double counting   =      8959.60364705    -8829.63017725
  entropy T*S    EENTRO =        -0.00526038
  eigenvalues    EBANDS =     -1638.73352738
  atomic energy  EATOM  =      9712.94829911
  ---------------------------------------------------
  free energy    TOTEN  =       -12.35000042 eV

  energy without entropy =      -12.34474004  energy(sigma->0) =      -12.34737023


--------------------------------------------------------------------------------------------------------




--------------------------------------- Iteration      1(  28)  ---------------------------------------


    POTLOK:  cpu time      0.2484: real time      0.2482
    SETDIJ:  cpu time      0.0286: real time      0.0286
    TRIAL :  cpu time      8.6904: real time      8.5977
    CORREC:  cpu time      4.6187: real time      4.6217
    CHARGE:  cpu time      1.1499: real time      1.1518
    --------------------------------------------
      LOOP:  cpu time     14.7363: real time     14.6486

 eigenvalue-minimisations  :     0
 total energy-change (2. order) :-0.3144683E-01  (-0.2039327E-01)
 number of electron      63.9999987 magnetization      -1.6247235
 augmentation part       16.4252450 magnetization      -0.3666762

 Free energy of the ion-electron system (eV)
  ---------------------------------------------------
  alpha Z        PSCENC =         9.40909239
  Ewald energy   TEWEN  =      3096.86607700
  -Hartree energ DENC   =    -11576.44150886
  -exchange      EXHF   =         0.00000000
  -V(xc)+E(xc)   XCENC  =       246.37575380
  PAW double counting   =      8954.84552842    -8824.69756907
  entropy T*S    EENTRO =        -0.00407183
  eigenvalues    EBANDS =     -1631.68185966
  atomic energy  EATOM  =      9712.94829911
  ---------------------------------------------------
  free energy    TOTEN  =       -12.38144726 eV

  energy without entropy =      -12.37737542  energy(sigma->0) =      -12.37941134


--------------------------------------------------------------------------------------------------------




--------------------------------------- Iteration      1(  29)  ---------------------------------------


    POTLOK:  cpu time      0.2488: real time      0.2486
    SETDIJ:  cpu time      0.0285: real time      0.0286
    TRIAL :  cpu time      8.6889: real time      8.5958
    CORREC:  cpu time      4.6347: real time      4.6376
    CHARGE:  cpu time      1.1624: real time      1.1644
    --------------------------------------------
      LOOP:  cpu time     14.7636: real time     14.6755

 eigenvalue-minimisations  :     0
 total energy-change (2. order) :-0.2006411E-01  (-0.2094659E-01)
 number of electron      63.9999987 magnetization      -1.6250355
 augmentation part       16.4235113 magnetization      -0.3648440

 Free energy of the ion-electron system (eV)
  ---------------------------------------------------
  alpha Z        PSCENC =         9.40909239
  Ewald energy   TEWEN  =      3096.86607700
  -Hartree energ DENC   =    -11580.53115077
  -exchange      EXHF   =         0.00000000
  -V(xc)+E(xc)   XCENC  =       246.47489986
  PAW double counting   =      8949.53624880    -8819.28772344
  entropy T*S    EENTRO =        -0.00543362
  eigenvalues    EBANDS =     -1627.81318249
  atomic energy  EATOM  =      9712.94829911
  ---------------------------------------------------
  free energy    TOTEN  =       -12.40151137 eV

  energy without entropy =      -12.39607775  energy(sigma->0) =      -12.39879456


--------------------------------------------------------------------------------------------------------




--------------------------------------- Iteration      1(  30)  ---------------------------------------


    POTLOK:  cpu time      0.2483: real time      0.2481
    SETDIJ:  cpu time      0.0283: real time      0.0284
    TRIAL :  cpu time      8.6945: real time      8.6019
    CORREC:  cpu time      4.6297: real time      4.6327
    CHARGE:  cpu time      1.1513: real time      1.1532
    --------------------------------------------
      LOOP:  cpu time     14.7524: real time     14.6649

 eigenvalue-minimisations  :     0
 total energy-change (2. order) :-0.2100315E-01  (-0.5220221E-01)
 number of electron      63.9999987 magnetization      -1.6940760
 augmentation part       16.3980289 magnetization      -0.3752971

 Free energy of the ion-electron system (eV)
  ---------------------------------------------------
  alpha Z        PSCENC =         9.40909239
  Ewald energy   TEWEN  =      3096.86607700
  -Hartree energ DENC   =    -11580.25167023
  -exchange      EXHF   =         0.00000000
  -V(xc)+E(xc)   XCENC  =       246.47461775
  PAW double counting   =      8944.34436849    -8814.09398662
  entropy T*S    EENTRO =        -0.00589826
  eigenvalues    EBANDS =     -1628.11387878
  atomic energy  EATOM  =      9712.94829911
  ---------------------------------------------------
  free energy    TOTEN  =       -12.42251452 eV

  energy without entropy =      -12.41661626  energy(sigma->0) =      -12.41956539


--------------------------------------------------------------------------------------------------------




--------------------------------------- Iteration      1(  31)  ---------------------------------------


    POTLOK:  cpu time      0.2486: real time      0.2484
    SETDIJ:  cpu time      0.0280: real time      0.0280
    TRIAL :  cpu time      8.6890: real time      8.5967
    CORREC:  cpu time     18.4731: real time     18.4847
    CHARGE:  cpu time      1.1590: real time      1.1610
    --------------------------------------------
      LOOP:  cpu time     28.5980: real time     28.5194

 eigenvalue-minimisations  :     0
 total energy-change (2. order) : 0.3946619E-01  (-0.3424499E+00)
 number of electron      63.9999987 magnetization      -1.9367492
 augmentation part       16.5472626 magnetization      -0.4407955

 Free energy of the ion-electron system (eV)
  ---------------------------------------------------
  alpha Z        PSCENC =         9.40909239
  Ewald energy   TEWEN  =      3096.86607700
  -Hartree energ DENC   =    -11566.25089502
  -exchange      EXHF   =         0.00000000
  -V(xc)+E(xc)   XCENC  =       246.16572881
  PAW double counting   =      8935.48290809    -8805.56584733
  entropy T*S    EENTRO =        -0.00238879
  eigenvalues    EBANDS =     -1641.43251312
  atomic energy  EATOM  =      9712.94829911
  ---------------------------------------------------
  free energy    TOTEN  =       -12.38304833 eV

  energy without entropy =      -12.38065954  energy(sigma->0) =      -12.38185393


--------------------------------------------------------------------------------------------------------




--------------------------------------- Iteration      1(  32)  ---------------------------------------


    POTLOK:  cpu time      0.2486: real time      0.2483
    SETDIJ:  cpu time      0.0289: real time      0.0290
    TRIAL :  cpu time      8.6892: real time      8.5962
    CORREC:  cpu time      4.6331: real time      4.6361
    CHARGE:  cpu time      1.1678: real time      1.1698
    --------------------------------------------
      LOOP:  cpu time     14.7679: real time     14.6799

 eigenvalue-minimisations  :     0
 total energy-change (2. order) : 0.5729632E+00  (-0.6569820E+00)
 number of electron      63.9999987 magnetization      -1.9374918
 augmentation part       16.4132856 magnetization      -0.4385440

 Free energy of the ion-electron system (eV)
  ---------------------------------------------------
  alpha Z        PSCENC =         9.40909239
  Ewald energy   TEWEN  =      3096.86607700
  -Hartree energ DENC   =    -11640.33477237
  -exchange      EXHF   =         0.00000000
  -V(xc)+E(xc)   XCENC  =       247.84903401
  PAW double counting   =      8945.06462357    -8812.96852946
  entropy T*S    EENTRO =        -0.00240743
[...]
     15      -9.1126      1.00000
     16      -8.8386      1.00000
     17      -8.2030      1.00000
     18      -8.1617      1.00000
     19      -7.8467      1.00000
     20      -7.5423      1.00000
     21      -6.7160      1.00000
     22      -6.5368      1.00000
     23      -6.4983      1.00000
     24      -6.4891      1.00000
     25      -6.1882      1.00000
     26      -5.9357      1.00000
     27      -5.7999      1.00000
     28      -5.7410      1.00000
     29      -5.6434      1.00000
     30      -5.6182      1.00000
     31      -5.6091      1.00000
     32      -5.5898      1.00000
     33      -5.1067      1.00000
     34      -5.0762      0.99997
     35      -4.1292      0.00000
     36      -3.1719      0.00000
     37      -1.7693      0.00000
     38      -1.1299      0.00000

 k-point    34 :       0.0000    0.5000    0.5000
  band No.  band energies     occupation 
      1     -57.3817      1.00000
      2     -57.2471      1.00000
      3     -57.1318      1.00000
      4     -56.7872      1.00000
      5     -56.7843      1.00000
      6     -56.6680      1.00000
      7     -56.5259      1.00000
      8     -56.5200      1.00000
      9     -56.4372      1.00000
     10     -56.3895      1.00000
     11     -56.3307      1.00000
     12     -56.3189      1.00000
     13     -10.1369      1.00000
     14      -9.8155      1.00000
     15      -9.1126      1.00000
     16      -8.8386      1.00000
     17      -8.2030      1.00000
     18      -8.1617      1.00000
     19      -7.8467      1.00000
     20      -7.5423      1.00000
     21      -6.7160      1.00000
     22      -6.5368      1.00000
     23      -6.4983      1.00000
     24      -6.4891      1.00000
     25      -6.1882      1.00000
     26      -5.9356      1.00000
     27      -5.7999      1.00000
     28      -5.7410      1.00000
     29      -5.6434      1.00000
     30      -5.6182      1.00000
     31      -5.6091      1.00000
     32      -5.5898      1.00000
     33      -5.1066      1.00000
     34      -5.0762      0.99997
     35      -4.1292      0.00000
     36      -3.1729      0.00000
     37      -1.7694      0.00000
     38      -1.0964      0.00000

 k-point    35 :       0.2500    0.5000    0.5000
  band No.  band energies     occupation 
      1     -57.3817      1.00000
      2     -57.2471      1.00000
      3     -57.1318      1.00000
      4     -56.7872      1.00000
      5     -56.7843      1.00000
      6     -56.6680      1.00000
      7     -56.5259      1.00000
      8     -56.5200      1.00000
      9     -56.4372      1.00000
     10     -56.3895      1.00000
     11     -56.3307      1.00000
     12     -56.3189      1.00000
     13     -10.1369      1.00000
     14      -9.8155      1.00000
     15      -9.1126      1.00000
     16      -8.8386      1.00000
     17      -8.2030      1.00000
     18      -8.1617      1.00000
     19      -7.8467      1.00000
     20      -7.5423      1.00000
     21      -6.7160      1.00000
     22      -6.5368      1.00000
     23      -6.4983      1.00000
     24      -6.4891      1.00000
     25      -6.1882      1.00000
     26      -5.9356      1.00000
     27      -5.7999      1.00000
     28      -5.7410      1.00000
     29      -5.6434      1.00000
     30      -5.6182      1.00000
     31      -5.6091      1.00000
     32      -5.5898      1.00000
     33      -5.1066      1.00000
     34      -5.0762      0.99997
     35      -4.1292      0.00000
     36      -3.1724      0.00000
     37      -1.7685      0.00000
     38      -1.1240      0.00000

 k-point    36 :       0.5000    0.5000    0.5000
  band No.  band energies     occupation 
      1     -57.3817      1.00000
      2     -57.2471      1.00000
      3     -57.1318      1.00000
      4     -56.7872      1.00000
      5     -56.7843      1.00000
      6     -56.6680      1.00000
      7     -56.5259      1.00000
      8     -56.5200      1.00000
      9     -56.4372      1.00000
     10     -56.3895      1.00000
     11     -56.3307      1.00000
     12     -56.3189      1.00000
     13     -10.1369      1.00000
     14      -9.8155      1.00000
     15      -9.1126      1.00000
     16      -8.8386      1.00000
     17      -8.2030      1.00000
     18      -8.1617      1.00000
     19      -7.8467      1.00000
     20      -7.5423      1.00000
     21      -6.7160      1.00000
     22      -6.5368      1.00000
     23      -6.4983      1.00000
     24      -6.4891      1.00000
     25      -6.1882      1.00000
     26      -5.9357      1.00000
     27      -5.7999      1.00000
     28      -5.7410      1.00000
     29      -5.6434      1.00000
     30      -5.6182      1.00000
     31      -5.6091      1.00000
     32      -5.5898      1.00000
     33      -5.1067      1.00000
     34      -5.0762      0.99997
     35      -4.1292      0.00000
     36      -3.1719      0.00000
     37      -1.7721      0.00000
     38      -1.1248      0.00000


--------------------------------------------------------------------------------------------------------


 soft charge-density along one line, spin component            1
         0         1         2         3         4         5         6         7         8         9
 total charge-density along one line
 
 soft charge-density along one line, spin component            2
         0         1         2         3         4         5         6         7         8         9
 total charge-density along one line
 
 pseudopotential strength for first ion, spin component:            1
-36.841  -0.000   0.040  16.103   0.000  -0.033   0.030   0.000
 -0.000 -36.736  -0.000   0.000  15.987   0.000  -0.000   0.059
  0.040  -0.000 -36.889  -0.033   0.000  16.142   0.055  -0.000
 16.103   0.000  -0.033  14.165  -0.000   0.017  -0.018  -0.000
  0.000  15.987   0.000  -0.000  14.188  -0.000   0.000  -0.033
 -0.033   0.000  16.142   0.017  -0.000  14.145  -0.032   0.000
  0.030  -0.000   0.055  -0.018   0.000  -0.032  -7.216  -0.000
  0.000   0.059  -0.000  -0.000  -0.033   0.000  -0.000  -7.134
 -0.029   0.000  -0.017   0.018  -0.000   0.011  -0.021  -0.000
 -0.000   0.034   0.000   0.000  -0.019  -0.000  -0.000   0.009
 -0.055  -0.000   0.033   0.032  -0.000  -0.019  -0.001   0.000
  0.034  -0.000   0.061  -0.021   0.000  -0.036  -7.871  -0.000
  0.000   0.066  -0.000  -0.000  -0.037   0.000  -0.000  -7.779
 -0.033   0.000  -0.019   0.021  -0.000   0.012  -0.024  -0.000
 -0.000   0.038   0.000   0.000  -0.021  -0.000  -0.000   0.010
 -0.061  -0.000   0.037   0.036  -0.000  -0.021  -0.001   0.000
 -0.042  -0.000  -0.024   0.009  -0.000   0.005  -0.015   0.000
  0.087   0.000   0.051  -0.016   0.000  -0.009   0.031  -0.000
 pseudopotential strength for first ion, spin component:            2
-36.964  -0.000   0.061  16.237   0.000  -0.069   0.026  -0.000
 -0.000 -36.850  -0.000   0.000  16.102   0.000   0.000   0.057
  0.061  -0.000 -37.035  -0.069   0.000  16.318   0.049   0.000
 16.237   0.000  -0.069  14.144  -0.000   0.025  -0.014   0.000
  0.000  16.102   0.000  -0.000  14.166  -0.000  -0.000  -0.029
 -0.069   0.000  16.318   0.025  -0.000  14.116  -0.025  -0.000
  0.026   0.000   0.049  -0.014  -0.000  -0.025  -7.392   0.000
 -0.000   0.057   0.000   0.000  -0.029  -0.000   0.000  -7.271
 -0.024   0.000  -0.014   0.012   0.000   0.007  -0.007   0.000
  0.000   0.033  -0.000  -0.000  -0.017   0.000  -0.000   0.063
 -0.049  -0.000   0.031   0.025   0.000  -0.016   0.022   0.000
  0.029   0.000   0.055  -0.015  -0.000  -0.028  -8.067   0.000
 -0.000   0.063   0.000   0.000  -0.033  -0.000   0.000  -7.932
 -0.027   0.000  -0.016   0.014   0.000   0.008  -0.008   0.000
  0.000   0.037  -0.000  -0.000  -0.019   0.000  -0.000   0.070
 -0.055  -0.000   0.035   0.028   0.000  -0.017   0.025   0.000
 -0.031   0.000  -0.018   0.005  -0.000   0.003  -0.040   0.000
  0.062  -0.000   0.036  -0.010   0.000  -0.006   0.084  -0.000
 total augmentation occupancy for first ion, spin component:            1
  2.001   0.000  -0.001  -0.009  -0.000   0.003   0.009   0.000  -0.006   0.000  -0.010  -0.012  -0.000   0.012   0.000   0.014
  0.000   1.999   0.000   0.000  -0.010  -0.000   0.000   0.019   0.000   0.011  -0.000   0.000  -0.016  -0.000  -0.009  -0.000
 -0.001   0.000   2.002   0.003  -0.000  -0.013   0.009   0.000  -0.003   0.000   0.001  -0.014   0.000   0.007  -0.000  -0.004
 -0.009   0.000   0.003   0.026  -0.000  -0.009   0.035   0.000  -0.133  -0.000  -0.175  -0.026  -0.000   0.104  -0.000   0.157
 -0.000  -0.010  -0.000  -0.000   0.009   0.000   0.000   0.065  -0.000   0.038   0.000  -0.000  -0.073  -0.000  -0.042  -0.000
  0.003  -0.000  -0.013  -0.009   0.000   0.037   0.174  -0.000  -0.077   0.000   0.168  -0.156  -0.000   0.061  -0.000  -0.156
  0.009   0.000   0.009   0.035   0.000   0.174   5.204   0.000  -0.075   0.000  -0.007  -2.808  -0.000   0.059  -0.000  -0.061
  0.000   0.019   0.000   0.000   0.065  -0.000   0.000   2.716  -0.000   0.099  -0.000  -0.000  -0.876   0.000  -0.011   0.000
 -0.006   0.000  -0.003  -0.133  -0.000  -0.077  -0.075  -0.000   3.277  -0.000   0.038   0.088   0.000  -1.297   0.000  -0.046
  0.000   0.011   0.000  -0.000   0.038   0.000   0.000   0.099  -0.000   2.606   0.001  -0.000  -0.011   0.000  -0.868  -0.001
 -0.010  -0.000   0.001  -0.175   0.000   0.168  -0.007  -0.000   0.038   0.001   5.208  -0.061   0.000  -0.029  -0.001  -2.887
 -0.012   0.000  -0.014  -0.026  -0.000  -0.156  -2.808  -0.000   0.088  -0.000  -0.061   2.137   0.000  -0.057   0.000   0.206
 -0.000  -0.016   0.000  -0.000  -0.073  -0.000  -0.000  -0.876   0.000  -0.011   0.000   0.000   0.898  -0.000   0.108  -0.000
  0.012  -0.000   0.007   0.104  -0.000   0.061   0.059   0.000  -1.297   0.000  -0.029  -0.057  -0.000   1.250  -0.000   0.029
  0.000  -0.009  -0.000  -0.000  -0.042  -0.000  -0.000  -0.011   0.000  -0.868  -0.001   0.000   0.108  -0.000   0.775   0.000
  0.014  -0.000  -0.004   0.157  -0.000  -0.156  -0.061   0.000  -0.046  -0.001  -2.887   0.206  -0.000   0.029   0.000   2.381
 -0.013  -0.000  -0.008   0.087   0.000   0.050  -0.145   0.000  -0.888   0.000   0.087   0.144  -0.000   1.078  -0.001  -0.086
  0.007   0.000   0.004   0.001   0.000   0.001   0.012  -0.000   0.002  -0.000  -0.007  -0.003  -0.000   0.014  -0.000   0.002
 total augmentation occupancy for first ion, spin component:            2
 -0.001  -0.000   0.000  -0.002  -0.000  -0.000   0.014   0.000  -0.016  -0.000  -0.022  -0.017  -0.000   0.016   0.000   0.026
 -0.000  -0.001  -0.000  -0.000  -0.002  -0.000  -0.000   0.010   0.000   0.006   0.000   0.000  -0.009  -0.000  -0.005  -0.000
  0.000  -0.000  -0.001  -0.000  -0.000  -0.002   0.022  -0.000  -0.009   0.000   0.011  -0.026   0.000   0.009  -0.000  -0.014
 -0.002  -0.000  -0.000  -0.001   0.000   0.001  -0.003   0.000  -0.011  -0.000  -0.000   0.017   0.000   0.002  -0.000  -0.024
 -0.000  -0.002  -0.000   0.000   0.001  -0.000  -0.000   0.006   0.000   0.004   0.000  -0.000  -0.004  -0.000  -0.002   0.000
 -0.000  -0.000  -0.002   0.001  -0.000  -0.002   0.000  -0.000  -0.006   0.000   0.003   0.024  -0.000   0.001   0.000   0.011
  0.014  -0.000   0.022  -0.003  -0.000   0.000   0.142  -0.000   0.006   0.000   0.008   0.048  -0.000   0.000  -0.000  -0.054
  0.000   0.010  -0.000   0.000   0.006  -0.000  -0.000   0.116  -0.000  -0.054  -0.000   0.000  -0.085  -0.000   0.033  -0.000
 -0.016   0.000  -0.009  -0.011   0.000  -0.006   0.006  -0.000   0.105   0.000  -0.003   0.032  -0.000  -0.047  -0.000  -0.019
 -0.000   0.006   0.000  -0.000   0.004   0.000   0.000  -0.054   0.000   0.180   0.000  -0.000   0.033  -0.000  -0.124  -0.000
 -0.022   0.000   0.011  -0.000   0.000   0.003   0.008  -0.000  -0.003   0.000   0.151  -0.054  -0.000  -0.000   0.000  -0.013
 -0.017   0.000  -0.026   0.017  -0.000   0.024   0.048   0.000   0.032  -0.000  -0.054  -0.465   0.000  -0.011  -0.000   0.157
 -0.000  -0.009   0.000   0.000  -0.004  -0.000  -0.000  -0.085  -0.000   0.033  -0.000   0.000  -0.049   0.000   0.162   0.000
  0.016  -0.000   0.009   0.002  -0.000   0.001   0.000  -0.000  -0.047  -0.000  -0.000  -0.011   0.000  -0.024  -0.000   0.007
  0.000  -0.005  -0.000  -0.000  -0.002   0.000  -0.000   0.033  -0.000  -0.124   0.000  -0.000   0.162  -0.000  -0.239  -0.000
  0.026  -0.000  -0.014  -0.024   0.000   0.011  -0.054  -0.000  -0.019  -0.000  -0.013   0.157   0.000   0.007  -0.000  -0.285
  0.002   0.000   0.001   0.008   0.000   0.004   0.021  -0.000   0.027  -0.000  -0.012  -0.083   0.000  -0.007   0.000   0.048
  0.001   0.000   0.001   0.000  -0.000   0.000  -0.005   0.000  -0.004   0.000   0.003  -0.001   0.000  -0.000   0.000   0.000


------------------------ aborting loop because EDIFF is reached ----------------------------------------





 total charge

# of ion       s       p       d       tot
------------------------------------------
    1        0.366   6.011   7.189  13.567
    2        0.438   5.976   7.169  13.582
    3        0.438   5.976   7.169  13.583
    4        0.367   6.011   7.189  13.567
--------------------------------------------------
tot          1.608  23.975  28.716  54.299



 magnetization (x)

# of ion       s       p       d       tot
------------------------------------------
    1        0.003  -0.004  -0.842  -0.843
    2       -0.038  -0.007  -0.793  -0.838
    3       -0.038  -0.007  -0.793  -0.838
    4        0.003  -0.004  -0.842  -0.843
--------------------------------------------------
tot         -0.071  -0.023  -3.269  -3.363
 
    FORLOC:  cpu time      0.0247: real time      0.0247
    FORNL :  cpu time      2.0218: real time      2.0084
    STRESS:  cpu time      6.1306: real time      6.0903
    FORCOR:  cpu time      0.1889: real time      0.1888
    OFIELD:  cpu time      0.0223: real time      0.0223

  FORCE on cell =-STRESS in cart. coord.  units (eV):
  Direction    XX          YY          ZZ          XY          YZ          ZX
  --------------------------------------------------------------------------------------
  Alpha Z     9.40909     9.40909     9.40909
  Ewald    3366.45889  1829.91344 -2099.24798  -940.18563    -0.30722     0.92320
  Hartree  5720.27125  4420.13797  1441.11969  -744.40615    -0.23672     0.68562
  E(xc)    -339.13101  -339.69432  -341.18094    -0.48381    -0.00015     0.00042
  Local  -10281.30472 -7467.40716  -634.80725  1665.42708     0.53749    -1.58861
  n-local  -136.86276  -134.76328  -108.19532     1.89267     0.00168    -0.00554
  augment   287.99133   292.17135   296.09545     3.47372     0.00080    -0.00175
  Kinetic  1373.12474  1390.09644  1436.68179    14.28344     0.00473    -0.01316
  Fock        0.00000     0.00000     0.00000     0.00000     0.00000     0.00000
  -------------------------------------------------------------------------------------
  Total      -0.04319    -0.13647    -0.12546     0.00131     0.00061     0.00017
  in kB      -0.01696    -0.05359    -0.04927     0.00051     0.00024     0.00007
  external pressure =       -0.04 kB  Pullay stress =        0.00 kB


 VOLUME and BASIS-vectors are now :
 -----------------------------------------------------------------------------
  energy-cutoff  :      520.00
  volume of cell :     4080.00
      direct lattice vectors                 reciprocal lattice vectors
    15.000000000  0.000000000  0.000000000     0.066666667  0.000000000  0.000000000
     0.000000000 16.000000000  0.000000000     0.000000000  0.062500000  0.000000000
     0.000000000  0.000000000 17.000000000     0.000000000  0.000000000  0.058823529

  length of vectors
    15.000000000 16.000000000 17.000000000     0.066666667  0.062500000  0.058823529


 FORCES acting on ions:
    Electron-Ion                     Ewald-Force                    Non-Local-Force
 -----------------------------------------------------------------------------------------------
   0.579E+03 0.101E+04 0.352E+00   -.575E+03 -.999E+03 -.349E+00   -.396E+01 -.680E+01 -.555E-02
   -.102E+04 0.595E+03 -.497E+00   0.101E+04 -.591E+03 0.493E+00   0.787E+01 -.453E+01 0.408E-02
   0.102E+04 -.596E+03 -.439E-01   -.101E+04 0.591E+03 0.425E-01   -.787E+01 0.453E+01 0.167E-03
   -.579E+03 -.101E+04 0.188E+00   0.575E+03 0.999E+03 -.186E+00   0.397E+01 0.680E+01 -.322E-02
 -----------------------------------------------------------------------------------------------
   -.918E-02 0.108E-01 -.584E-03   0.114E-12 0.227E-12 -.555E-16   0.689E-02 -.695E-02 -.453E-02
 
 
 POSITION                                       TOTAL-FORCE (eV/Angst)
 -----------------------------------------------------------------------------------
      6.87507      7.41642      9.49962        -0.016012      0.000314     -0.001349
      9.38255      7.41097      9.50070         0.014141      0.001429      0.001259
      5.61810      9.58942      9.49988        -0.023122     -0.003396      0.000009
      8.12428      9.58320      9.49980         0.024993      0.001654      0.000080
 -----------------------------------------------------------------------------------
    total drift:                               -0.002289      0.003819     -0.005111


--------------------------------------------------------------------------------------------------------



  FREE ENERGIE OF THE ION-ELECTRON SYSTEM (eV)
  ---------------------------------------------------
  free  energy   TOTEN  =       -13.22385058 eV

  energy  without entropy=      -13.22376061  energy(sigma->0) =      -13.22380559
 
 d Force = 0.5212091E-05[ 0.211E-05, 0.831E-05]  d Energy = 0.3282996E-05 0.193E-05
 d Force = 0.2614094E+00[ 0.261E+00, 0.261E+00]  d Ewald  = 0.2614094E+00 0.867E-08


--------------------------------------------------------------------------------------------------------


    POTLOK:  cpu time      0.3293: real time      0.3288


--------------------------------------------------------------------------------------------------------




--------------------------------------------------------------------------------------------------------


  
 reached required accuracy - stopping structural energy minimisation
     LOOP+:  cpu time    116.9080: real time    116.2330
    4ORBIT:  cpu time      0.0000: real time      0.0000



 total charge

# of ion       s       p       d       tot
------------------------------------------
    1        0.366   6.011   7.189  13.567
    2        0.438   5.976   7.169  13.582
    3        0.438   5.976   7.169  13.583
    4        0.367   6.011   7.189  13.567
--------------------------------------------------
tot          1.608  23.975  28.716  54.299



 magnetization (x)

# of ion       s       p       d       tot
------------------------------------------
    1        0.003  -0.004  -0.842  -0.843
    2       -0.038  -0.007  -0.793  -0.838
    3       -0.038  -0.007  -0.793  -0.838
    4        0.003  -0.004  -0.842  -0.843
--------------------------------------------------
tot         -0.071  -0.023  -3.269  -3.363
 

 total amount of memory used by VASP MPI-rank0  8117480. kBytes
=======================================================================

   base      :      30000. kBytes
   nonlr-proj:       3587. kBytes
   fftplans  :     235681. kBytes
   grid      :     626626. kBytes
   one-center:        124. kBytes
   wavefun   :    7221462. kBytes
 
  
  
 General timing and accounting informations for this job:
 ========================================================
  
                  Total CPU time used (sec):     5205.345
                            User time (sec):     4557.100
                          System time (sec):      648.245
                         Elapsed time (sec):     5181.236
  
                   Maximum memory used (kb):    13125544.
                   Average memory used (kb):          N/A
  
                          Minor page faults:      2590777
                          Major page faults:            0
                 Voluntary context switches:      3795655
