 vasp.6.3.1 04May22 (build Nov  5 2022 14:28:48) complex                         
 executed on              LinuxNV date 2024.03.07  07:33:05
 running    6 mpi-ranks, with    1 threads/rank
 distrk:  each k-point on    6 cores,    1 groups
 distr:  one band on NCORE=   1 cores,    6 groups


--------------------------------------------------------------------------------------------------------


 INCAR:
   ALGO = All
   EDIFF = 1e-05
   EDIFFG = -0.03
   ENCUT = 520
   IBRION = 2
   ICHARG = 2
   ISIF = 2
   ISMEAR = 0
   ISPIN = 2
   ISYM = 0
   LPLANE = True
   LREAL = A
   LORBIT = 11
   LWAVE = False
   MAGMOM = 120*0.06
   NELM = 200
   NCORE = 24
   NSIM = 4
   NSW = 150
   PREC = Accurate
   SIGMA = 0.05
   IDIPOL = 3
   DIPOL = 0.5 0.5 0.5

 POTCAR:    PAW_PBE Pt_pv 12Dec2005               
 POTCAR:    PAW_PBE Pt_pv 12Dec2005               
   SHA256 =  e5abf7e8cd8db70d0153315afc5ad66b6e3eeee29cc2d5b91b16730957c1d208 Pt_pv/POTCAR          
   COPYR  = (c) Copyright 12Dec2005 Georg Kresse                                                    
   COPYR  = This file is part of the software VASP. Any use, copying, and all other rights are regul
   COPYR  = If you do not have a valid VASP license, you may not use, copy or distribute this file. 
   VRHFIN =Pt: 5ps1d9                                                                               
   LEXCH  = PE                                                                                      
   EATOM  =  2428.2504 eV,  178.4714 Ry                                                             
                                                                                                    
   TITEL  = PAW_PBE Pt_pv 12Dec2005                                                                 
   LULTRA =        F    use ultrasoft PP ?                                                          
   IUNSCR =        1    unscreen: 0-lin 1-nonlin 2-no                                               
   RPACOR =    2.000    partial core radius                                                         
   POMASS =  195.080; ZVAL   =   16.000    mass and valenz                                          
   RCORE  =    2.200    outmost cutoff radius                                                       
   RWIGS  =    2.200; RWIGS  =    1.164    wigner-seitz radius (au A)                               
   ENMAX  =  294.607; ENMIN  =  220.955 eV                                                          
   ICORE  =        3    local potential                                                             
   LCOR   =        T    correct aug charges                                                         
   LPAW   =        T    paw PP                                                                      
   EAUG   =  527.014                                                                                
   DEXC   =    0.000                                                                                
   RMAX   =    2.247    core radius for proj-oper                                                   
   RAUG   =    1.300    factor for augmentation sphere                                              
   RDEP   =    2.279    radius for radial grids                                                     
   RDEPT  =    1.878    core radius for aug-charge                                                  
                                                                                                    
   Atomic configuration                                                                             
   16 entries                                                                                       
     n  l   j            E        occ.                                                              
     1  0  0.50    -78401.1885   2.0000                                                             
     2  0  0.50    -13770.7750   2.0000                                                             
     2  1  1.50    -11931.0468   6.0000                                                             
     3  0  0.50     -3234.7234   2.0000                                                             
     3  1  1.50     -2699.2216   6.0000                                                             
     3  2  2.50     -2119.5714  10.0000                                                             
     4  0  0.50      -695.1528   2.0000                                                             
     4  1  1.50      -519.6034   6.0000                                                             
     4  2  2.50      -306.6786  10.0000                                                             
     4  3  3.50       -70.1041  14.0000                                                             
     5  0  0.50      -101.7747   2.0000                                                             
     5  1  1.50       -55.9873   6.0000                                                             
     6  1  1.50        -6.8029   0.0000                                                             
     5  2  2.50        -6.1423   9.0000                                                             
     6  0  0.50        -5.6573   1.0000                                                             
     5  3  2.50        -1.3606   0.0000                                                             
   Description                                                                                      
     l       E           TYP  RCUT    TYP  RCUT                                                     
     1    -55.9873477     23  2.000                                                                 
     1     27.2116520     23  2.000                                                                 
     2     -6.1423404     23  2.200                                                                 
     2     -4.6754623     23  2.200                                                                 
     0     -5.6573207     23  2.200                                                                 
     0     47.6203910     23  2.200                                                                 
     3      6.8029130     23  2.200                                                                 
  local pseudopotential read in
  partial core-charges read in
  partial kinetic energy density read in
  atomic valenz-charges read in
  non local Contribution for L=            1  read in
    real space projection operators read in
  non local Contribution for L=            1  read in
    real space projection operators read in
  non local Contribution for L=            2  read in
    real space projection operators read in
  non local Contribution for L=            2  read in
    real space projection operators read in
  non local Contribution for L=            0  read in
    real space projection operators read in
  non local Contribution for L=            0  read in
    real space projection operators read in
    PAW grid and wavefunctions read in
 
   number of l-projection  operators is LMAX  =            6
   number of lm-projection operators is LMMAX =           18
 
 -----------------------------------------------------------------------------
|                                                                             |
|               ----> ADVICE to this user running VASP <----                  |
|                                                                             |
|     You have a (more or less) 'small supercell' and for smaller cells       |
|     it is recommended to use the reciprocal-space projection scheme!        |
|     The real-space optimization is not efficient for small cells and it     |
|     is also less accurate ...                                               |
|     Therefore, set LREAL=.FALSE. in the INCAR file.                         |
|                                                                             |
 -----------------------------------------------------------------------------

 Optimization of the real space projectors (new method)

 maximal supplied QI-value         = 17.01
 optimisation between [QCUT,QGAM] = [ 11.57, 23.30] = [ 37.45,152.03] Ry 
 Optimized for a Real-space Cutoff    1.45 Angstroem

   l    n(q)    QCUT    max X(q) W(low)/X(q) W(high)/X(q)  e(spline) 
   1     10    11.565     2.562    0.35E-04    0.59E-04    0.63E-07
   1     10    11.565     3.505    0.10E-03    0.15E-03    0.18E-06
   2      9    11.565    75.314    0.14E-03    0.66E-04    0.16E-06
   2      9    11.565    69.548    0.14E-03    0.66E-04    0.16E-06
   0     10    11.565    24.655    0.77E-04    0.17E-04    0.11E-06
   0     10    11.565    11.003    0.52E-04    0.14E-04    0.85E-07
  PAW_PBE Pt_pv 12Dec2005               :
 energy of atom  1       EATOM=-2428.2504
 kinetic energy error for atom=    0.0133 (will be added to EATOM!!)
 
 
 POSCAR: Platinum (Pt) Crystal
  positions in direct lattice
  velocities in cartesian coordinates
 exchange correlation table for  LEXCH =        8
   RHO(1)=    0.500       N(1)  =     2000
   RHO(2)=  100.500       N(2)  =     4000
 


--------------------------------------------------------------------------------------------------------


 ion  position               nearest neighbor table
   1  0.631  0.627  0.616-   3 2.50   2 2.60   4 2.61
   2  0.511  0.509  0.617-   4 2.58   3 2.60   1 2.60
   3  0.513  0.627  0.512-   1 2.50   2 2.60   4 2.60
   4  0.633  0.509  0.510-   2 2.58   3 2.60   1 2.61
 

IMPORTANT INFORMATION: All symmetrisations will be switched off!
NOSYMM: (Re-)initialisation of all symmetry stuff for point group C_1.


----------------------------------------------------------------------------------------

                                     Primitive cell                                     

  volume of cell :    4080.0000

  direct lattice vectors                    reciprocal lattice vectors
    15.000000000  0.000000000  0.000000000     0.066666667  0.000000000  0.000000000
     0.000000000 16.000000000  0.000000000     0.000000000  0.062500000  0.000000000
     0.000000000  0.000000000 17.000000000     0.000000000  0.000000000  0.058823529

  length of vectors
    15.000000000 16.000000000 17.000000000     0.066666667  0.062500000  0.058823529

  position of ions in fractional coordinates (direct lattice)
     0.631161575  0.626628428  0.615736982
     0.511458777  0.508685421  0.617237193
     0.513180920  0.626635930  0.511627061
     0.632873722  0.508683024  0.510111992

  ion indices of the primitive-cell ions
   primitive index   ion index
                 1           1
                 2           2
                 3           3
                 4           4

----------------------------------------------------------------------------------------

 
 
 KPOINTS: Kpoints                                 

Automatic generation of k-mesh.
 Grid dimensions read from file:
 generate k-points for:    3    3    3

 Generating k-lattice:

  Cartesian coordinates                     Fractional coordinates (reciprocal lattice)
     0.022222222  0.000000000  0.000000000     0.333333333  0.000000000  0.000000000
     0.000000000  0.020833333  0.000000000     0.000000000  0.333333333  0.000000000
     0.000000000  0.000000000  0.019607843     0.000000000  0.000000000  0.333333333

  Length of vectors
     0.022222222  0.020833333  0.019607843

  Shift w.r.t. Gamma in fractional coordinates (k-lattice)
     0.000000000  0.000000000  0.000000000

 
 Subroutine IBZKPT returns following result:
 ===========================================
 
 Found     14 irreducible k-points:
 
 Following reciprocal coordinates:
            Coordinates               Weight
  0.000000  0.000000  0.000000      1.000000
  0.333333  0.000000  0.000000      2.000000
  0.000000  0.333333  0.000000      2.000000
  0.333333  0.333333  0.000000      2.000000
  0.333333 -0.333333  0.000000      2.000000
  0.000000  0.000000  0.333333      2.000000
  0.333333  0.000000  0.333333      2.000000
  0.333333  0.000000 -0.333333      2.000000
  0.000000  0.333333  0.333333      2.000000
  0.000000  0.333333 -0.333333      2.000000
  0.333333  0.333333  0.333333      2.000000
  0.333333 -0.333333 -0.333333      2.000000
 -0.333333  0.333333 -0.333333      2.000000
 -0.333333 -0.333333  0.333333      2.000000
 
 Following cartesian coordinates:
            Coordinates               Weight
  0.000000  0.000000  0.000000      1.000000
  0.022222  0.000000  0.000000      2.000000
  0.000000  0.020833  0.000000      2.000000
  0.022222  0.020833  0.000000      2.000000
  0.022222 -0.020833  0.000000      2.000000
  0.000000  0.000000  0.019608      2.000000
  0.022222  0.000000  0.019608      2.000000
  0.022222  0.000000 -0.019608      2.000000
  0.000000  0.020833  0.019608      2.000000
  0.000000  0.020833 -0.019608      2.000000
  0.022222  0.020833  0.019608      2.000000
  0.022222 -0.020833 -0.019608      2.000000
 -0.022222  0.020833 -0.019608      2.000000
 -0.022222 -0.020833  0.019608      2.000000
 


--------------------------------------------------------------------------------------------------------




 Dimension of arrays:
   k-points           NKPTS =     14   k-points in BZ     NKDIM =     14   number of bands    NBANDS=     42
   number of dos      NEDOS =    301   number of ions     NIONS =      4
   non local maximal  LDIM  =      6   non local SUM 2l+1 LMDIM =     18
   total plane-waves  NPLWV = ******
   max r-space proj   IRMAX =   5304   max aug-charges    IRDMAX=  14330
   dimension x,y,z NGX =   112 NGY =  120 NGZ =  126
   dimension x,y,z NGXF=   224 NGYF=  240 NGZF=  252
   support grid    NGXF=   224 NGYF=  240 NGZF=  252
   ions per type =               4
   NGX,Y,Z   is equivalent  to a cutoff of  12.41, 12.47, 12.32 a.u.
   NGXF,Y,Z  is equivalent  to a cutoff of  24.83, 24.94, 24.64 a.u.

 SYSTEM =  unknown system                          
 POSCAR =  Platinum (Pt) Crystal                   

 Startparameter for this run:
   NWRITE =      2    write-flag & timer
   PREC   = accura    normal or accurate (medium, high low for compatibility)
   ISTART =      0    job   : 0-new  1-cont  2-samecut
   ICHARG =      2    charge: 1-file 2-atom 10-const
   ISPIN  =      2    spin polarized calculation?
   LNONCOLLINEAR =      F non collinear calculations
   LSORBIT =      F    spin-orbit coupling
   INIWAV =      1    electr: 0-lowe 1-rand  2-diag
   LASPH  =      F    aspherical Exc in radial PAW
 Electronic Relaxation 1
   ENCUT  =  520.0 eV  38.22 Ry    6.18 a.u.  27.89 29.75 31.61*2*pi/ulx,y,z
   ENINI  =  520.0     initial cutoff
   ENAUG  =  527.0 eV  augmentation charge cutoff
   NELM   =    200;   NELMIN=  2; NELMDL= -5     # of ELM steps 
   EDIFF  = 0.1E-04   stopping-criterion for ELM
   LREAL  =      T    real-space projection
   NLSPLINE    = F    spline interpolate recip. space projectors
   LCOMPAT=      F    compatible to vasp.4.4
   GGA_COMPAT  = T    GGA compatible to vasp.4.4-vasp.4.6
   LMAXPAW     = -100 max onsite density
   LMAXMIX     =    2 max onsite mixed and CHGCAR
   VOSKOWN=      0    Vosko Wilk Nusair interpolation
   ROPT   =   -0.00025
 Ionic relaxation
   EDIFFG = -.3E-01   stopping-criterion for IOM
   NSW    =    150    number of steps for IOM
   NBLOCK =      1;   KBLOCK =    150    inner block; outer block 
   IBRION =      2    ionic relax: 0-MD 1-quasi-New 2-CG
   NFREE  =      1    steps in history (QN), initial steepest desc. (CG)
   ISIF   =      2    stress and relaxation
   IWAVPR =     11    prediction:  0-non 1-charg 2-wave 3-comb
   ISYM   =      0    0-nonsym 1-usesym 2-fastsym
   LCORR  =      T    Harris-Foulkes like correction to forces

   POTIM  = 0.5000    time-step for ionic-motion
   TEIN   =    0.0    initial temperature
   TEBEG  =    0.0;   TEEND  =   0.0 temperature during run
   SMASS  =  -3.00    Nose mass-parameter (am)
   estimated Nose-frequenzy (Omega)   =  0.10E-29 period in steps = 0.13E+47 mass=  -0.514E-26a.u.
   SCALEE = 1.0000    scale energy and forces
   NPACO  =    256;   APACO  = 10.0  distance and # of slots for P.C.
   PSTRESS=    0.0 pullay stress

  Mass of Ions in am
   POMASS = 195.08
  Ionic Valenz
   ZVAL   =  16.00
  Atomic Wigner-Seitz radii
   RWIGS  =  -1.00
  virtual crystal weights 
   VCA    =   1.00
   NELECT =      64.0000    total number of electrons
   NUPDOWN=      -1.0000    fix difference up-down

 DOS related values:
   EMIN   =  10.00;   EMAX   =-10.00  energy-range for DOS
   EFERMI =   0.00
   ISMEAR =     0;   SIGMA  =   0.05  broadening in eV -4-tet -1-fermi 0-gaus

 Electronic relaxation 2 (details)
   IALGO  =     58    algorithm
   LDIAG  =      T    sub-space diagonalisation (order eigenvalues)
   LSUBROT=      F    optimize rotation matrix (better conditioning)
   TURBO    =      0    0=normal 1=particle mesh
   IRESTART =      0    0=no restart 2=restart with 2 vectors
   NREBOOT  =      0    no. of reboots
   NMIN     =      0    reboot dimension
   EREF     =   0.00    reference energy to select bands
   IMIX   =      4    mixing-type and parameters
     AMIX     =   0.40;   BMIX     =  1.00
     AMIX_MAG =   1.60;   BMIX_MAG =  1.00
     AMIN     =   0.10
     WC   =   100.;   INIMIX=   1;  MIXPRE=   1;  MAXMIX= -45

 Intra band minimization:
   WEIMIN = 0.0010     energy-eigenvalue tresh-hold
   EBREAK =  0.60E-07  absolut break condition
   DEPER  =   0.30     relativ break condition  

   TIME   =   0.40     timestep for ELM

  volume/ion in A,a.u.               =    1020.00      6883.30
  Fermi-wavevector in a.u.,A,eV,Ry     =   0.409809  0.774427  2.285008  0.167943
  Thomas-Fermi vector in A             =   1.365038
 
 Write flags
   LWAVE        =      F    write WAVECAR
   LDOWNSAMPLE  =      F    k-point downsampling of WAVECAR
   LCHARG       =      T    write CHGCAR
   LVTOT        =      F    write LOCPOT, total local potential
   LVHAR        =      F    write LOCPOT, Hartree potential only
   LELF         =      F    write electronic localiz. function (ELF)
   LORBIT       =     11    0 simple, 1 ext, 2 COOP (PROOUT), +10 PAW based schemes


 Dipole corrections
   LMONO  =      F    monopole corrections only (constant potential shift)
   LDIPOL =      F    correct potential (dipole corrections)
   IDIPOL =      3    1-x, 2-y, 3-z, 4-all directions 
   EPSILON=  1.0000000 bulk dielectric constant

 Exchange correlation treatment:
   GGA     =    --    GGA type
   LEXCH   =     8    internal setting for exchange type
   LIBXC   =     F    Libxc                    
   VOSKOWN =     0    Vosko Wilk Nusair interpolation
   LHFCALC =     F    Hartree Fock is set to
   LHFONE  =     F    Hartree Fock one center treatment
   AEXX    =    0.0000 exact exchange contribution

 Linear response parameters
   LEPSILON=     F    determine dielectric tensor
   LRPA    =     F    only Hartree local field effects (RPA)
   LNABLA  =     F    use nabla operator in PAW spheres
   LVEL    =     F    velocity operator in full k-point grid
   CSHIFT  =0.1000    complex shift for real part using Kramers Kronig
   OMEGAMAX=  -1.0    maximum frequency
   DEG_THRESHOLD= 0.2000000E-02 threshold for treating states as degnerate
   RTIME   =   -0.100 relaxation time in fs
  (WPLASMAI=    0.000 imaginary part of plasma frequency in eV, 0.658/RTIME)
   DFIELD  = 0.0000000 0.0000000 0.0000000 field for delta impulse in time
 
  Optional k-point grid parameters
   LKPOINTS_OPT  =     F    use optional k-point grid
   KPOINTS_OPT_MODE=     1    mode for optional k-point grid
 
 Orbital magnetization related:
   ORBITALMAG=     F  switch on orbital magnetization
   LCHIMAG   =     F  perturbation theory with respect to B field
   DQ        =  0.001000  dq finite difference perturbation B field
   LLRAUG    =     F  two centre corrections for induced B field



--------------------------------------------------------------------------------------------------------


 conjugate gradient relaxation of ions
 charge density and potential will be updated during run
 spin polarized calculation
 Conjugate gradient for all bands (Freysoldt, et al. PRB 79, 241103 (2009))
 preconditioned conjugated gradient                                        
 perform sub-space diagonalisation
    before iterative eigenvector-optimisation
 modified Broyden-mixing scheme, WC =      100.0
 initial mixing is a Kerker type mixing with AMIX =  0.4000 and BMIX =      1.0000
 Hartree-type preconditioning will be used
 using additional bands            10
 real space projection scheme for non local part
 use partial core corrections
 no Harris-corrections to forces 
 use gradient corrections 
 use of overlap-Matrix (Vanderbilt PP)
 Gauss-broadening in eV      SIGMA  =   0.05


--------------------------------------------------------------------------------------------------------


  energy-cutoff  :      520.00
  volume of cell :     4080.00
      direct lattice vectors                 reciprocal lattice vectors
    15.000000000  0.000000000  0.000000000     0.066666667  0.000000000  0.000000000
     0.000000000 16.000000000  0.000000000     0.000000000  0.062500000  0.000000000
     0.000000000  0.000000000 17.000000000     0.000000000  0.000000000  0.058823529

  length of vectors
    15.000000000 16.000000000 17.000000000     0.066666667  0.062500000  0.058823529


 
 k-points in units of 2pi/SCALE and weight: Kpoints                                 
   0.00000000  0.00000000  0.00000000       0.037
   0.02222222  0.00000000  0.00000000       0.074
   0.00000000  0.02083333  0.00000000       0.074
   0.02222222  0.02083333  0.00000000       0.074
   0.02222222 -0.02083333  0.00000000       0.074
   0.00000000  0.00000000  0.01960784       0.074
   0.02222222  0.00000000  0.01960784       0.074
   0.02222222  0.00000000 -0.01960784       0.074
   0.00000000  0.02083333  0.01960784       0.074
   0.00000000  0.02083333 -0.01960784       0.074
   0.02222222  0.02083333  0.01960784       0.074
   0.02222222 -0.02083333 -0.01960784       0.074
  -0.02222222  0.02083333 -0.01960784       0.074
  -0.02222222 -0.02083333  0.01960784       0.074
 
 k-points in reciprocal lattice and weights: Kpoints                                 
   0.00000000  0.00000000  0.00000000       0.037
   0.33333333  0.00000000  0.00000000       0.074
   0.00000000  0.33333333  0.00000000       0.074
   0.33333333  0.33333333  0.00000000       0.074
   0.33333333 -0.33333333  0.00000000       0.074
   0.00000000  0.00000000  0.33333333       0.074
   0.33333333  0.00000000  0.33333333       0.074
   0.33333333  0.00000000 -0.33333333       0.074
   0.00000000  0.33333333  0.33333333       0.074
   0.00000000  0.33333333 -0.33333333       0.074
   0.33333333  0.33333333  0.33333333       0.074
   0.33333333 -0.33333333 -0.33333333       0.074
  -0.33333333  0.33333333 -0.33333333       0.074
  -0.33333333 -0.33333333  0.33333333       0.074
 
 position of ions in fractional coordinates (direct lattice) 
   0.63116157  0.62662843  0.61573698
   0.51145878  0.50868542  0.61723719
   0.51318092  0.62663593  0.51162706
   0.63287372  0.50868302  0.51011199
 
 position of ions in cartesian coordinates  (Angst):
   9.46742362 10.02605484 10.46752869
   7.67188166  8.13896673 10.49303228
   7.69771380 10.02617487  8.69766004
   9.49310583  8.13892839  8.67190387
 


--------------------------------------------------------------------------------------------------------


 k-point   1 :   0.0000 0.0000 0.0000  plane waves:  109903
 k-point   2 :   0.3333 0.0000 0.0000  plane waves:  109914
 k-point   3 :   0.0000 0.3333 0.0000  plane waves:  109856
 k-point   4 :   0.3333 0.3333 0.0000  plane waves:  109869
 k-point   5 :   0.3333-0.3333 0.0000  plane waves:  109869
 k-point   6 :   0.0000 0.0000 0.3333  plane waves:  109867
 k-point   7 :   0.3333 0.0000 0.3333  plane waves:  109860
 k-point   8 :   0.3333 0.0000-0.3333  plane waves:  109860
 k-point   9 :   0.0000 0.3333 0.3333  plane waves:  109851
 k-point  10 :   0.0000 0.3333-0.3333  plane waves:  109851
 k-point  11 :   0.3333 0.3333 0.3333  plane waves:  109844
 k-point  12 :   0.3333-0.3333-0.3333  plane waves:  109844
 k-point  13 :  -0.3333 0.3333-0.3333  plane waves:  109844
 k-point  14 :  -0.3333-0.3333 0.3333  plane waves:  109844

 maximum and minimum number of plane-waves per node :    109914   109844

 maximum number of plane-waves:    109914
 maximum index in each direction: 
   IXMAX=   28   IYMAX=   30   IZMAX=   31
   IXMIN=  -28   IYMIN=  -30   IZMIN=  -31


 serial   3D FFT for wavefunctions
 parallel 3D FFT for charge:
    minimum data exchange during FFTs selected (reduces bandwidth)


 total amount of memory used by VASP MPI-rank0  1455021. kBytes
=======================================================================

   base      :      30000. kBytes
   nonlr-proj:       3585. kBytes
   fftplans  :      84164. kBytes
   grid      :     302400. kBytes
   one-center:        124. kBytes
   wavefun   :    1034748. kBytes
 
     INWAV:  cpu time      0.0002: real time      0.0003
 Broyden mixing: mesh for mixing (old mesh)
   NGX = 55   NGY = 59   NGZ = 63
  (NGX  =224   NGY  =240   NGZ  =252)
  gives a total of 204435 points

 initial charge density was supplied:
 charge density of overlapping atoms calculated
 number of electron      64.0000000 magnetization       0.2400000
 keeping initial charge density in first step


--------------------------------------------------------------------------------------------------------


 Maximum index for non-local projection operator          5105
 Maximum index for augmentation-charges          2323 (set IRDMAX)


--------------------------------------------------------------------------------------------------------


 First call to EWALD:  gamma=   0.111
 Maximum number of real-space cells 3x 3x 3
 Maximum number of reciprocal cells 3x 3x 3

    FEWALD:  cpu time      0.0277: real time      0.0278


--------------------------------------- Iteration      1(   1)  ---------------------------------------


    POTLOK:  cpu time      0.2918: real time      0.2681
    SETDIJ:  cpu time      0.0252: real time      0.0252
    TRIAL :  cpu time      5.1537: real time      3.7885
    CORREC:  cpu time      0.0052: real time      0.0052
    --------------------------------------------
      LOOP:  cpu time      5.7505: real time      4.3613

 eigenvalue-minimisations  :  3144
 total energy-change (2. order) : 0.6336970E+03  (-0.2120979E+04)
 number of electron      64.0000000 magnetization       0.2400000
 augmentation part       64.0000000 magnetization       0.2400000

 Free energy of the ion-electron system (eV)
  ---------------------------------------------------
  alpha Z        PSCENC =         9.40909239
  Ewald energy   TEWEN  =      3424.04264625
  -Hartree energ DENC   =    -11926.34458900
  -exchange      EXHF   =         0.00000000
  -V(xc)+E(xc)   XCENC  =       248.00822971
  PAW double counting   =      8263.00953309    -8123.34287884
  entropy T*S    EENTRO =        -0.01716261
  eigenvalues    EBANDS =      -974.01616834
  atomic energy  EATOM  =      9712.94829911
  ---------------------------------------------------
  free energy    TOTEN  =       633.69700177 eV

  energy without entropy =      633.71416438  energy(sigma->0) =      633.70558308


--------------------------------------------------------------------------------------------------------




--------------------------------------- Iteration      1(   2)  ---------------------------------------


    TRIAL :  cpu time      5.1845: real time      3.8285
    CORREC:  cpu time      0.0057: real time      0.0057
    --------------------------------------------
      LOOP:  cpu time      5.1911: real time      3.8353

 eigenvalue-minimisations  :  3312
 total energy-change (2. order) :-0.4239926E+03  (-0.4169285E+03)
 number of electron      64.0000000 magnetization       0.2400000
 augmentation part       64.0000000 magnetization       0.2400000

 Free energy of the ion-electron system (eV)
  ---------------------------------------------------
  alpha Z        PSCENC =         9.40909239
  Ewald energy   TEWEN  =      3424.04264625
  -Hartree energ DENC   =    -11926.34458900
  -exchange      EXHF   =         0.00000000
  -V(xc)+E(xc)   XCENC  =       248.00822971
  PAW double counting   =      8263.00953309    -8123.34287884
  entropy T*S    EENTRO =        -0.03009297
  eigenvalues    EBANDS =     -1397.99587176
  atomic energy  EATOM  =      9712.94829911
  ---------------------------------------------------
  free energy    TOTEN  =       209.70436799 eV

  energy without entropy =      209.73446096  energy(sigma->0) =      209.71941447


--------------------------------------------------------------------------------------------------------




--------------------------------------- Iteration      1(   3)  ---------------------------------------


    TRIAL :  cpu time      5.9941: real time      4.4551
    CORREC:  cpu time      0.0054: real time      0.0054
    --------------------------------------------
      LOOP:  cpu time      6.0002: real time      4.4615

 eigenvalue-minimisations  :  3984
 total energy-change (2. order) :-0.1561201E+03  (-0.1527665E+03)
 number of electron      64.0000000 magnetization       0.2400000
 augmentation part       64.0000000 magnetization       0.2400000

 Free energy of the ion-electron system (eV)
  ---------------------------------------------------
  alpha Z        PSCENC =         9.40909239
  Ewald energy   TEWEN  =      3424.04264625
  -Hartree energ DENC   =    -11926.34458900
  -exchange      EXHF   =         0.00000000
  -V(xc)+E(xc)   XCENC  =       248.00822971
  PAW double counting   =      8263.00953309    -8123.34287884
  entropy T*S    EENTRO =        -0.01200940
  eigenvalues    EBANDS =     -1554.13404615
  atomic energy  EATOM  =      9712.94829911
  ---------------------------------------------------
  free energy    TOTEN  =        53.58427718 eV

  energy without entropy =       53.59628658  energy(sigma->0) =       53.59028188


--------------------------------------------------------------------------------------------------------




--------------------------------------- Iteration      1(   4)  ---------------------------------------


    TRIAL :  cpu time      5.1428: real time      3.8320
    CORREC:  cpu time      0.0048: real time      0.0048
    --------------------------------------------
      LOOP:  cpu time      5.1486: real time      3.8379

 eigenvalue-minimisations  :  3348
 total energy-change (2. order) :-0.5472040E+02  (-0.5378747E+02)
 number of electron      64.0000000 magnetization       0.2400000
 augmentation part       64.0000000 magnetization       0.2400000

 Free energy of the ion-electron system (eV)
  ---------------------------------------------------
  alpha Z        PSCENC =         9.40909239
  Ewald energy   TEWEN  =      3424.04264625
  -Hartree energ DENC   =    -11926.34458900
  -exchange      EXHF   =         0.00000000
  -V(xc)+E(xc)   XCENC  =       248.00822971
  PAW double counting   =      8263.00953309    -8123.34287884
  entropy T*S    EENTRO =        -0.02782571
  eigenvalues    EBANDS =     -1608.83862523
  atomic energy  EATOM  =      9712.94829911
  ---------------------------------------------------
  free energy    TOTEN  =        -1.13611822 eV

  energy without entropy =       -1.10829251  energy(sigma->0) =       -1.12220537


--------------------------------------------------------------------------------------------------------




--------------------------------------- Iteration      1(   5)  ---------------------------------------


    TRIAL :  cpu time      5.1218: real time      3.8193
    CORREC:  cpu time      0.0050: real time      0.0050
    CHARGE:  cpu time      0.9075: real time      0.9090
    --------------------------------------------
      LOOP:  cpu time      6.0350: real time      4.7345

 eigenvalue-minimisations  :  3372
 total energy-change (2. order) :-0.9753551E+01  (-0.9142153E+01)
 number of electron      64.0000003 magnetization      -0.1749849
 augmentation part       16.3262989 magnetization      -0.0321447

 Free energy of the ion-electron system (eV)
  ---------------------------------------------------
  alpha Z        PSCENC =         9.40909239
  Ewald energy   TEWEN  =      3424.04264625
  -Hartree energ DENC   =    -11926.34458900
  -exchange      EXHF   =         0.00000000
  -V(xc)+E(xc)   XCENC  =       248.00822971
  PAW double counting   =      8263.00953309    -8123.34287884
  entropy T*S    EENTRO =        -0.00563673
  eigenvalues    EBANDS =     -1618.61436474
  atomic energy  EATOM  =      9712.94829911
  ---------------------------------------------------
  free energy    TOTEN  =       -10.88966875 eV

  energy without entropy =      -10.88403202  energy(sigma->0) =      -10.88685038


--------------------------------------------------------------------------------------------------------




--------------------------------------- Iteration      1(   6)  ---------------------------------------


    POTLOK:  cpu time      0.2587: real time      0.1902
    SETDIJ:  cpu time      0.0236: real time      0.0237
    TRIAL :  cpu time      2.6336: real time      1.8711
    CORREC:  cpu time      2.1997: real time      1.9164
    CHARGE:  cpu time      0.8856: real time      0.8870
    --------------------------------------------
      LOOP:  cpu time      6.0020: real time      4.8894

 eigenvalue-minimisations  :     0
 total energy-change (2. order) : 0.2768779E+01  (-0.2018487E+01)
 number of electron      64.0000003 magnetization      -0.1676870
 augmentation part       16.5431474 magnetization      -0.0366423

 Free energy of the ion-electron system (eV)
  ---------------------------------------------------
  alpha Z        PSCENC =         9.40909239
  Ewald energy   TEWEN  =      3424.04264625
  -Hartree energ DENC   =    -11961.36048647
  -exchange      EXHF   =         0.00000000
  -V(xc)+E(xc)   XCENC  =       245.90333227
  PAW double counting   =      9288.79764560    -9157.03303668
  entropy T*S    EENTRO =        -0.00690249
  eigenvalues    EBANDS =     -1570.82274540
  atomic energy  EATOM  =      9712.94829911
  ---------------------------------------------------
  free energy    TOTEN  =        -8.12088966 eV

  energy without entropy =       -8.11398717  energy(sigma->0) =       -8.11743841


--------------------------------------------------------------------------------------------------------




--------------------------------------- Iteration      1(   7)  ---------------------------------------


    POTLOK:  cpu time      0.2762: real time      0.1729
    SETDIJ:  cpu time      0.0224: real time      0.0225
    TRIAL :  cpu time      2.6193: real time      1.8601
    CORREC:  cpu time      2.2363: real time      1.9110
    CHARGE:  cpu time      0.8703: real time      0.8717
    --------------------------------------------
      LOOP:  cpu time      6.0258: real time      4.8397

 eigenvalue-minimisations  :     0
 total energy-change (2. order) :-0.2023366E+01  (-0.7530138E+00)
 number of electron      64.0000003 magnetization      -0.1855585
 augmentation part       16.5965889 magnetization      -0.0437960

 Free energy of the ion-electron system (eV)
  ---------------------------------------------------
  alpha Z        PSCENC =         9.40909239
  Ewald energy   TEWEN  =      3424.04264625
  -Hartree energ DENC   =    -11951.89075818
  -exchange      EXHF   =         0.00000000
  -V(xc)+E(xc)   XCENC  =       247.10560663
  PAW double counting   =      9071.79610588    -8936.80901270
  entropy T*S    EENTRO =        -0.00625006
  eigenvalues    EBANDS =     -1586.73933253
  atomic energy  EATOM  =      9712.94829911
  ---------------------------------------------------
  free energy    TOTEN  =       -10.14425564 eV

  energy without entropy =      -10.13800557  energy(sigma->0) =      -10.14113060


--------------------------------------------------------------------------------------------------------




--------------------------------------- Iteration      1(   8)  ---------------------------------------


    POTLOK:  cpu time      0.2761: real time      0.1725
    SETDIJ:  cpu time      0.0231: real time      0.0232
    TRIAL :  cpu time      2.6196: real time      1.8586
    CORREC:  cpu time      2.2396: real time      1.9171
    CHARGE:  cpu time      0.8735: real time      0.8749
    --------------------------------------------
      LOOP:  cpu time      6.0332: real time      4.8483

 eigenvalue-minimisations  :     0
 total energy-change (2. order) :-0.7516550E+00  (-0.3387593E+00)
 number of electron      64.0000003 magnetization      -0.1997655
 augmentation part       16.5701618 magnetization      -0.0493977

 Free energy of the ion-electron system (eV)
  ---------------------------------------------------
  alpha Z        PSCENC =         9.40909239
  Ewald energy   TEWEN  =      3424.04264625
  -Hartree energ DENC   =    -11960.64428652
  -exchange      EXHF   =         0.00000000
  -V(xc)+E(xc)   XCENC  =       247.65506723
  PAW double counting   =      8976.71949991    -8840.13389819
  entropy T*S    EENTRO =        -0.00490181
  eigenvalues    EBANDS =     -1580.88608080
  atomic energy  EATOM  =      9712.94829911
  ---------------------------------------------------
  free energy    TOTEN  =       -10.89591068 eV

  energy without entropy =      -10.89100886  energy(sigma->0) =      -10.89345977


--------------------------------------------------------------------------------------------------------




--------------------------------------- Iteration      1(   9)  ---------------------------------------


    POTLOK:  cpu time      0.2766: real time      0.1727
    SETDIJ:  cpu time      0.0229: real time      0.0230
    TRIAL :  cpu time      2.6093: real time      1.8537
    CORREC:  cpu time      2.2547: real time      1.9309
    CHARGE:  cpu time      0.8728: real time      0.8741
    --------------------------------------------
      LOOP:  cpu time      6.0373: real time      4.8556

 eigenvalue-minimisations  :     0
 total energy-change (2. order) :-0.3343250E+00  (-0.2057404E+00)
 number of electron      64.0000003 magnetization      -0.2189093
 augmentation part       16.5503373 magnetization      -0.0545710

 Free energy of the ion-electron system (eV)
  ---------------------------------------------------
  alpha Z        PSCENC =         9.40909239
  Ewald energy   TEWEN  =      3424.04264625
  -Hartree energ DENC   =    -11971.12186254
  -exchange      EXHF   =         0.00000000
  -V(xc)+E(xc)   XCENC  =       247.81806594
  PAW double counting   =      8981.90102065    -8844.78434604
  entropy T*S    EENTRO =        -0.00209182
  eigenvalues    EBANDS =     -1571.43824958
  atomic energy  EATOM  =      9712.94829911
  ---------------------------------------------------
  free energy    TOTEN  =       -11.23023563 eV

  energy without entropy =      -11.22814380  energy(sigma->0) =      -11.22918971


--------------------------------------------------------------------------------------------------------




--------------------------------------- Iteration      1(  10)  ---------------------------------------


    POTLOK:  cpu time      0.2755: real time      0.1724
    SETDIJ:  cpu time      0.0235: real time      0.0236
    TRIAL :  cpu time      2.6139: real time      1.8574
    CORREC:  cpu time      2.2291: real time      1.9071
    CHARGE:  cpu time      0.8705: real time      0.8719
    --------------------------------------------
      LOOP:  cpu time      6.0136: real time      4.8338

 eigenvalue-minimisations  :     0
 total energy-change (2. order) :-0.2024928E+00  (-0.1352696E+00)
 number of electron      64.0000003 magnetization      -0.2294021
 augmentation part       16.5413078 magnetization      -0.0594947

 Free energy of the ion-electron system (eV)
  ---------------------------------------------------
  alpha Z        PSCENC =         9.40909239
  Ewald energy   TEWEN  =      3424.04264625
  -Hartree energ DENC   =    -11976.81318899
  -exchange      EXHF   =         0.00000000
  -V(xc)+E(xc)   XCENC  =       247.82999547
  PAW double counting   =      9023.50524842    -8886.24130361
  entropy T*S    EENTRO =        -0.00255611
  eigenvalues    EBANDS =     -1566.11142560
  atomic energy  EATOM  =      9712.94829911
  ---------------------------------------------------
  free energy    TOTEN  =       -11.43272839 eV

  energy without entropy =      -11.43017228  energy(sigma->0) =      -11.43145033


--------------------------------------------------------------------------------------------------------




--------------------------------------- Iteration      1(  11)  ---------------------------------------


    POTLOK:  cpu time      0.2760: real time      0.1729
    SETDIJ:  cpu time      0.0229: real time      0.0229
    TRIAL :  cpu time      2.6206: real time      1.8602
    CORREC:  cpu time      2.2320: real time      1.9104
    CHARGE:  cpu time      0.8717: real time      0.8731
    --------------------------------------------
      LOOP:  cpu time      6.0247: real time      4.8413

 eigenvalue-minimisations  :     0
 total energy-change (2. order) :-0.1376685E+00  (-0.2579786E+00)
 number of electron      64.0000003 magnetization      -0.1567295
 augmentation part       16.5456912 magnetization      -0.0445498

 Free energy of the ion-electron system (eV)
  ---------------------------------------------------
  alpha Z        PSCENC =         9.40909239
  Ewald energy   TEWEN  =      3424.04264625
  -Hartree energ DENC   =    -11968.70003427
  -exchange      EXHF   =         0.00000000
  -V(xc)+E(xc)   XCENC  =       247.59233419
  PAW double counting   =      9065.29910690    -8928.42512607
  entropy T*S    EENTRO =        -0.00237686
  eigenvalues    EBANDS =     -1573.73415923
  atomic energy  EATOM  =      9712.94829911
  ---------------------------------------------------
  free energy    TOTEN  =       -11.57039684 eV

  energy without entropy =      -11.56801998  energy(sigma->0) =      -11.56920841


--------------------------------------------------------------------------------------------------------




--------------------------------------- Iteration      1(  12)  ---------------------------------------


    POTLOK:  cpu time      0.2756: real time      0.1727
    SETDIJ:  cpu time      0.0234: real time      0.0235
    TRIAL :  cpu time      2.6132: real time      1.8568
    CORREC:  cpu time      2.2337: real time      1.9118
    CHARGE:  cpu time      0.8782: real time      0.8799
    --------------------------------------------
      LOOP:  cpu time      6.0257: real time      4.8466

 eigenvalue-minimisations  :     0
 total energy-change (2. order) :-0.1632338E+00  (-0.2965868E+00)
 number of electron      64.0000003 magnetization      -0.1672635
 augmentation part       16.5513500 magnetization      -0.0465766

 Free energy of the ion-electron system (eV)
  ---------------------------------------------------
  alpha Z        PSCENC =         9.40909239
  Ewald energy   TEWEN  =      3424.04264625
  -Hartree energ DENC   =    -11957.09830175
  -exchange      EXHF   =         0.00000000
  -V(xc)+E(xc)   XCENC  =       247.31779041
  PAW double counting   =      9132.60293100    -8996.22023103
  entropy T*S    EENTRO =        -0.00288753
  eigenvalues    EBANDS =     -1584.73348018
  atomic energy  EATOM  =      9712.94829911
  ---------------------------------------------------
  free energy    TOTEN  =       -11.73363065 eV

  energy without entropy =      -11.73074312  energy(sigma->0) =      -11.73218689


--------------------------------------------------------------------------------------------------------




--------------------------------------- Iteration      1(  13)  ---------------------------------------


    POTLOK:  cpu time      0.2756: real time      0.1725
    SETDIJ:  cpu time      0.0230: real time      0.0231
    TRIAL :  cpu time      2.6264: real time      1.8631
    CORREC:  cpu time      2.2241: real time      1.9041
    CHARGE:  cpu time      0.8691: real time      0.8705
    --------------------------------------------
      LOOP:  cpu time      6.0201: real time      4.8355

 eigenvalue-minimisations  :     0
 total energy-change (2. order) :-0.2964642E+00  (-0.2010502E+00)
 number of electron      64.0000003 magnetization      -0.2167634
 augmentation part       16.5573520 magnetization      -0.0577918

 Free energy of the ion-electron system (eV)
  ---------------------------------------------------
  alpha Z        PSCENC =         9.40909239
  Ewald energy   TEWEN  =      3424.04264625
  -Hartree energ DENC   =    -11972.95122053
  -exchange      EXHF   =         0.00000000
  -V(xc)+E(xc)   XCENC  =       247.65254254
  PAW double counting   =      9106.80411089    -8969.83507518
  entropy T*S    EENTRO =        -0.00558080
  eigenvalues    EBANDS =     -1570.09760277
  atomic energy  EATOM  =      9712.94829911
  ---------------------------------------------------
  free energy    TOTEN  =       -12.03009483 eV

  energy without entropy =      -12.02451403  energy(sigma->0) =      -12.02730443


--------------------------------------------------------------------------------------------------------




--------------------------------------- Iteration      1(  14)  ---------------------------------------


    POTLOK:  cpu time      0.2775: real time      0.1731
    SETDIJ:  cpu time      0.0231: real time      0.0232
    TRIAL :  cpu time      2.6204: real time      1.8580
    CORREC:  cpu time      2.2320: real time      1.9028
    CHARGE:  cpu time      0.8624: real time      0.8638
    --------------------------------------------
      LOOP:  cpu time      6.0167: real time      4.8224

 eigenvalue-minimisations  :     0
 total energy-change (2. order) :-0.1922852E+00  (-0.1361836E+00)
 number of electron      64.0000003 magnetization      -0.3409857
 augmentation part       16.5616479 magnetization      -0.0876966

 Free energy of the ion-electron system (eV)
  ---------------------------------------------------
  alpha Z        PSCENC =         9.40909239
  Ewald energy   TEWEN  =      3424.04264625
  -Hartree energ DENC   =    -11980.71918296
  -exchange      EXHF   =         0.00000000
  -V(xc)+E(xc)   XCENC  =       247.93768299
  PAW double counting   =      9072.95480514    -8935.35477553
  entropy T*S    EENTRO =        -0.01359455
  eigenvalues    EBANDS =     -1563.43536665
  atomic energy  EATOM  =      9712.94829911
  ---------------------------------------------------
  free energy    TOTEN  =       -12.22238007 eV

  energy without entropy =      -12.20878552  energy(sigma->0) =      -12.21558279


--------------------------------------------------------------------------------------------------------




--------------------------------------- Iteration      1(  15)  ---------------------------------------


    POTLOK:  cpu time      0.2754: real time      0.1720
    SETDIJ:  cpu time      0.0232: real time      0.0232
    TRIAL :  cpu time      2.6154: real time      1.8554
    CORREC:  cpu time      2.2249: real time      1.9014
    CHARGE:  cpu time      0.8744: real time      0.8758
    --------------------------------------------
      LOOP:  cpu time      6.0150: real time      4.8297

 eigenvalue-minimisations  :     0
 total energy-change (2. order) :-0.1303687E+00  (-0.1042808E+00)
 number of electron      64.0000003 magnetization      -0.4319171
 augmentation part       16.5667414 magnetization      -0.1100277

 Free energy of the ion-electron system (eV)
  ---------------------------------------------------
  alpha Z        PSCENC =         9.40909239
  Ewald energy   TEWEN  =      3424.04264625
  -Hartree energ DENC   =    -11978.03146561
  -exchange      EXHF   =         0.00000000
  -V(xc)+E(xc)   XCENC  =       247.96826338
  PAW double counting   =      9053.86807173    -8916.04470483
  entropy T*S    EENTRO =        -0.02085805
  eigenvalues    EBANDS =     -1566.49935666
  atomic energy  EATOM  =      9712.94829911
  ---------------------------------------------------
  free energy    TOTEN  =       -12.35274878 eV

  energy without entropy =      -12.33189074  energy(sigma->0) =      -12.34231976


--------------------------------------------------------------------------------------------------------




--------------------------------------- Iteration      1(  16)  ---------------------------------------


    POTLOK:  cpu time      0.2754: real time      0.1720
    SETDIJ:  cpu time      0.0233: real time      0.0233
    TRIAL :  cpu time      2.6237: real time      1.8611
    CORREC:  cpu time      2.2247: real time      1.9018
    CHARGE:  cpu time      0.8644: real time      0.8659
    --------------------------------------------
      LOOP:  cpu time      6.0127: real time      4.8256

 eigenvalue-minimisations  :     0
 total energy-change (2. order) :-0.1041767E+00  (-0.1170856E+00)
 number of electron      64.0000003 magnetization      -0.7128995
 augmentation part       16.5666887 magnetization      -0.1812091

 Free energy of the ion-electron system (eV)
  ---------------------------------------------------
  alpha Z        PSCENC =         9.40909239
  Ewald energy   TEWEN  =      3424.04264625
  -Hartree energ DENC   =    -11975.35206116
  -exchange      EXHF   =         0.00000000
  -V(xc)+E(xc)   XCENC  =       247.91834695
  PAW double counting   =      9055.06620588    -8917.28170272
  entropy T*S    EENTRO =        -0.02981984
  eigenvalues    EBANDS =     -1569.18689414
  atomic energy  EATOM  =      9712.94829911
  ---------------------------------------------------
  free energy    TOTEN  =       -12.45692549 eV

  energy without entropy =      -12.42710564  energy(sigma->0) =      -12.44201557


--------------------------------------------------------------------------------------------------------




--------------------------------------- Iteration      1(  17)  ---------------------------------------


    POTLOK:  cpu time      0.2759: real time      0.1724
    SETDIJ:  cpu time      0.0231: real time      0.0232
    TRIAL :  cpu time      2.6160: real time      1.8578
    CORREC:  cpu time      2.2260: real time      1.9032
    CHARGE:  cpu time      0.8714: real time      0.8728
    --------------------------------------------
      LOOP:  cpu time      6.0137: real time      4.8310

 eigenvalue-minimisations  :     0
 total energy-change (2. order) :-0.1160540E+00  (-0.5757756E-01)
 number of electron      64.0000003 magnetization      -0.9703831
 augmentation part       16.5580472 magnetization      -0.2463193

 Free energy of the ion-electron system (eV)
  ---------------------------------------------------
  alpha Z        PSCENC =         9.40909239
  Ewald energy   TEWEN  =      3424.04264625
  -Hartree energ DENC   =    -11979.29691178
  -exchange      EXHF   =         0.00000000
  -V(xc)+E(xc)   XCENC  =       247.86815320
  PAW double counting   =      9084.08832688    -8946.63638877
  entropy T*S    EENTRO =        -0.03177628
  eigenvalues    EBANDS =     -1564.96637691
  atomic energy  EATOM  =      9712.94829911
  ---------------------------------------------------
  free energy    TOTEN  =       -12.57297947 eV

  energy without entropy =      -12.54120319  energy(sigma->0) =      -12.55709133


--------------------------------------------------------------------------------------------------------




--------------------------------------- Iteration      1(  18)  ---------------------------------------


    POTLOK:  cpu time      0.2768: real time      0.1729
    SETDIJ:  cpu time      0.0232: real time      0.0233
    TRIAL :  cpu time      2.6154: real time      1.8573
    CORREC:  cpu time      2.2336: real time      1.9108
    CHARGE:  cpu time      0.8577: real time      0.8591
    --------------------------------------------
      LOOP:  cpu time      6.0083: real time      4.8251

 eigenvalue-minimisations  :     0
 total energy-change (2. order) :-0.5696649E-01  (-0.7080747E-01)
 number of electron      64.0000003 magnetization      -1.3103580
 augmentation part       16.5396436 magnetization      -0.3292693

 Free energy of the ion-electron system (eV)
  ---------------------------------------------------
  alpha Z        PSCENC =         9.40909239
  Ewald energy   TEWEN  =      3424.04264625
  -Hartree energ DENC   =    -11979.50550069
  -exchange      EXHF   =         0.00000000
  -V(xc)+E(xc)   XCENC  =       247.80760436
  PAW double counting   =      9097.92016548    -8960.72508002
  entropy T*S    EENTRO =        -0.02867129
  eigenvalues    EBANDS =     -1564.49539658
  atomic energy  EATOM  =      9712.94829911
  ---------------------------------------------------
  free energy    TOTEN  =       -12.62994596 eV

  energy without entropy =      -12.60127467  energy(sigma->0) =      -12.61561032


--------------------------------------------------------------------------------------------------------




--------------------------------------- Iteration      1(  19)  ---------------------------------------


    POTLOK:  cpu time      0.2764: real time      0.1726
    SETDIJ:  cpu time      0.0234: real time      0.0234
    TRIAL :  cpu time      2.6102: real time      1.8544
    CORREC:  cpu time      2.2359: real time      1.9113
    CHARGE:  cpu time      0.8741: real time      0.8756
    --------------------------------------------
      LOOP:  cpu time      6.0212: real time      4.8386

 eigenvalue-minimisations  :     0
 total energy-change (2. order) :-0.7376091E-01  (-0.5360748E-01)
 number of electron      64.0000003 magnetization      -1.5727761
 augmentation part       16.5344433 magnetization      -0.3957733

 Free energy of the ion-electron system (eV)
  ---------------------------------------------------
  alpha Z        PSCENC =         9.40909239
  Ewald energy   TEWEN  =      3424.04264625
  -Hartree energ DENC   =    -11974.77098714
  -exchange      EXHF   =         0.00000000
  -V(xc)+E(xc)   XCENC  =       247.67410275
  PAW double counting   =      9104.58227080    -8967.78392012
  entropy T*S    EENTRO =        -0.02036436
  eigenvalues    EBANDS =     -1568.77653962
  atomic energy  EATOM  =      9712.94829911
  ---------------------------------------------------
  free energy    TOTEN  =       -12.70370687 eV

  energy without entropy =      -12.68334251  energy(sigma->0) =      -12.69352469


--------------------------------------------------------------------------------------------------------




--------------------------------------- Iteration      1(  20)  ---------------------------------------


    POTLOK:  cpu time      0.2760: real time      0.1724
    SETDIJ:  cpu time      0.0231: real time      0.0231
    TRIAL :  cpu time      2.6274: real time      1.8633
    CORREC:  cpu time      2.2351: real time      1.9131
    CHARGE:  cpu time      0.8709: real time      0.8723
    --------------------------------------------
      LOOP:  cpu time      6.0334: real time      4.8454

 eigenvalue-minimisations  :     0
 total energy-change (2. order) :-0.5323787E-01  (-0.2868307E-01)
 number of electron      64.0000003 magnetization      -1.6255924
 augmentation part       16.5420074 magnetization      -0.4114371

 Free energy of the ion-electron system (eV)
  ---------------------------------------------------
  alpha Z        PSCENC =         9.40909239
  Ewald energy   TEWEN  =      3424.04264625
  -Hartree energ DENC   =    -11970.36598489
  -exchange      EXHF   =         0.00000000
  -V(xc)+E(xc)   XCENC  =       247.65730355
  PAW double counting   =      9094.35917419    -8957.64175876
  entropy T*S    EENTRO =        -0.01781681
  eigenvalues    EBANDS =     -1573.14535222
  atomic energy  EATOM  =      9712.94829911
  ---------------------------------------------------
  free energy    TOTEN  =       -12.75694474 eV

  energy without entropy =      -12.73912793  energy(sigma->0) =      -12.74803633


--------------------------------------------------------------------------------------------------------




--------------------------------------- Iteration      1(  21)  ---------------------------------------


    POTLOK:  cpu time      0.2764: real time      0.1730
    SETDIJ:  cpu time      0.0228: real time      0.0228
    TRIAL :  cpu time      2.6148: real time      1.8585
    CORREC:  cpu time      2.2507: real time      1.9249
    CHARGE:  cpu time      0.8716: real time      0.8730
    --------------------------------------------
      LOOP:  cpu time      6.0377: real time      4.8539

 eigenvalue-minimisations  :     0
 total energy-change (2. order) :-0.2736644E-01  (-0.6642036E-01)
 number of electron      64.0000003 magnetization      -1.9200931
 augmentation part       16.5815744 magnetization      -0.4974469

 Free energy of the ion-electron system (eV)
  ---------------------------------------------------
  alpha Z        PSCENC =         9.40909239
  Ewald energy   TEWEN  =      3424.04264625
  -Hartree energ DENC   =    -11970.41800737
  -exchange      EXHF   =         0.00000000
  -V(xc)+E(xc)   XCENC  =       247.74088021
  PAW double counting   =      9082.79679511    -8945.91601729
  entropy T*S    EENTRO =        -0.01633560
  eigenvalues    EBANDS =     -1573.37018278
  atomic energy  EATOM  =      9712.94829911
  ---------------------------------------------------
  free energy    TOTEN  =       -12.78431118 eV

  energy without entropy =      -12.76797557  energy(sigma->0) =      -12.77614337


--------------------------------------------------------------------------------------------------------




--------------------------------------- Iteration      1(  22)  ---------------------------------------


    POTLOK:  cpu time      0.2762: real time      0.1727
    SETDIJ:  cpu time      0.0232: real time      0.0232
    TRIAL :  cpu time      2.6148: real time      1.8573
    CORREC:  cpu time      2.4393: real time      2.1153
    CHARGE:  cpu time      0.8688: real time      0.8702
    --------------------------------------------
      LOOP:  cpu time      6.2236: real time      5.0400

 eigenvalue-minimisations  :     0
 total energy-change (2. order) :-0.2330639E-01  (-0.6434019E-01)
 number of electron      64.0000003 magnetization      -1.9250418
 augmentation part       16.5649950 magnetization      -0.5006476

 Free energy of the ion-electron system (eV)
  ---------------------------------------------------
  alpha Z        PSCENC =         9.40909239
  Ewald energy   TEWEN  =      3424.04264625
  -Hartree energ DENC   =    -11977.31046613
  -exchange      EXHF   =         0.00000000
  -V(xc)+E(xc)   XCENC  =       248.17587907
  PAW double counting   =      9046.68642700    -8909.00589275
  entropy T*S    EENTRO =        -0.01814897
  eigenvalues    EBANDS =     -1567.73726691
  atomic energy  EATOM  =      9712.94829911
  ---------------------------------------------------
  free energy    TOTEN  =       -12.80761757 eV

  energy without entropy =      -12.78946860  energy(sigma->0) =      -12.79854309


--------------------------------------------------------------------------------------------------------




--------------------------------------- Iteration      1(  23)  ---------------------------------------


    POTLOK:  cpu time      0.2760: real time      0.1727
    SETDIJ:  cpu time      0.0229: real time      0.0229
    TRIAL :  cpu time      2.6210: real time      1.8582
    CORREC:  cpu time      2.2330: real time      1.9106
    CHARGE:  cpu time      0.8697: real time      0.8712
    --------------------------------------------
      LOOP:  cpu time      6.0239: real time      4.8373

 eigenvalue-minimisations  :     0
 total energy-change (2. order) :-0.6590765E-01  (-0.3213505E-01)
 number of electron      64.0000003 magnetization      -1.9259237
 augmentation part       16.5440542 magnetization      -0.5012123

 Free energy of the ion-electron system (eV)
  ---------------------------------------------------
  alpha Z        PSCENC =         9.40909239
  Ewald energy   TEWEN  =      3424.04264625
  -Hartree energ DENC   =    -11975.76838626
  -exchange      EXHF   =         0.00000000
  -V(xc)+E(xc)   XCENC  =       248.03590317
  PAW double counting   =      9060.43786183    -8923.03695420
  entropy T*S    EENTRO =        -0.01849263
  eigenvalues    EBANDS =     -1568.92383856
  atomic energy  EATOM  =      9712.94829911
  ---------------------------------------------------
  free energy    TOTEN  =       -12.87352521 eV

  energy without entropy =      -12.85503258  energy(sigma->0) =      -12.86427890


--------------------------------------------------------------------------------------------------------




--------------------------------------- Iteration      1(  24)  ---------------------------------------


    POTLOK:  cpu time      0.2770: real time      0.1734
    SETDIJ:  cpu time      0.0228: real time      0.0228
    TRIAL :  cpu time      2.6131: real time      1.8569
    CORREC:  cpu time      2.2527: real time      1.9241
    CHARGE:  cpu time      0.8851: real time      0.8866
    --------------------------------------------
      LOOP:  cpu time      6.0531: real time      4.8664

 eigenvalue-minimisations  :     0
 total energy-change (2. order) :-0.3214524E-01  (-0.1364007E-01)
 number of electron      64.0000003 magnetization      -1.9259259
 augmentation part       16.5364402 magnetization      -0.4981367

 Free energy of the ion-electron system (eV)
  ---------------------------------------------------
  alpha Z        PSCENC =         9.40909239
  Ewald energy   TEWEN  =      3424.04264625
  -Hartree energ DENC   =    -11971.55522824
  -exchange      EXHF   =         0.00000000
  -V(xc)+E(xc)   XCENC  =       247.84561289
  PAW double counting   =      9072.87560439    -8935.90119771
  entropy T*S    EENTRO =        -0.02006666
  eigenvalues    EBANDS =     -1572.55200690
  atomic energy  EATOM  =      9712.94829911
  ---------------------------------------------------
  free energy    TOTEN  =       -12.90567046 eV

  energy without entropy =      -12.88560379  energy(sigma->0) =      -12.89563712


--------------------------------------------------------------------------------------------------------




--------------------------------------- Iteration      1(  25)  ---------------------------------------


    POTLOK:  cpu time      0.2772: real time      0.1734
    SETDIJ:  cpu time      0.0233: real time      0.0233
    TRIAL :  cpu time      2.6059: real time      1.8528
    CORREC:  cpu time      2.2328: real time      1.9119
    CHARGE:  cpu time      0.8791: real time      0.8806
    --------------------------------------------
      LOOP:  cpu time      6.0194: real time      4.8433

 eigenvalue-minimisations  :     0
 total energy-change (2. order) :-0.1370848E-01  (-0.2018350E-01)
 number of electron      64.0000003 magnetization      -1.9259260
 augmentation part       16.5418593 magnetization      -0.5009679

 Free energy of the ion-electron system (eV)
  ---------------------------------------------------
  alpha Z        PSCENC =         9.40909239
  Ewald energy   TEWEN  =      3424.04264625
  -Hartree energ DENC   =    -11969.55968232
  -exchange      EXHF   =         0.00000000
  -V(xc)+E(xc)   XCENC  =       247.76218155
  PAW double counting   =      9076.10207015    -8939.35065057
  entropy T*S    EENTRO =        -0.02100675
  eigenvalues    EBANDS =     -1574.25326883
  atomic energy  EATOM  =      9712.94829911
  ---------------------------------------------------
  free energy    TOTEN  =       -12.91937893 eV

  energy without entropy =      -12.89837218  energy(sigma->0) =      -12.90887556


--------------------------------------------------------------------------------------------------------




--------------------------------------- Iteration      1(  26)  ---------------------------------------


    POTLOK:  cpu time      0.2758: real time      0.1727
    SETDIJ:  cpu time      0.0229: real time      0.0229
    TRIAL :  cpu time      2.6232: real time      1.8619
    CORREC:  cpu time      2.2423: real time      1.9205
    CHARGE:  cpu time      0.8775: real time      0.8791
    --------------------------------------------
      LOOP:  cpu time      6.0429: real time      4.8587

 eigenvalue-minimisations  :     0
 total energy-change (2. order) :-0.2044058E-01  (-0.1536652E-01)
 number of electron      64.0000003 magnetization      -1.9259269
 augmentation part       16.5497275 magnetization      -0.5014970

 Free energy of the ion-electron system (eV)
  ---------------------------------------------------
  alpha Z        PSCENC =         9.40909239
  Ewald energy   TEWEN  =      3424.04264625
  -Hartree energ DENC   =    -11971.43100439
  -exchange      EXHF   =         0.00000000
  -V(xc)+E(xc)   XCENC  =       247.79407502
  PAW double counting   =      9073.85044742    -8937.14757026
  entropy T*S    EENTRO =        -0.02086376
  eigenvalues    EBANDS =     -1572.38479829
  atomic energy  EATOM  =      9712.94829911
  ---------------------------------------------------
  free energy    TOTEN  =       -12.93981951 eV

  energy without entropy =      -12.91895575  energy(sigma->0) =      -12.92938763


--------------------------------------------------------------------------------------------------------




--------------------------------------- Iteration      1(  27)  ---------------------------------------


    POTLOK:  cpu time      0.2761: real time      0.1730
    SETDIJ:  cpu time      0.0230: real time      0.0230
    TRIAL :  cpu time      2.6263: real time      1.8620
    CORREC:  cpu time      2.2394: real time      1.9142
    CHARGE:  cpu time      0.8711: real time      0.8725
    --------------------------------------------
      LOOP:  cpu time      6.0383: real time      4.8474

 eigenvalue-minimisations  :     0
 total energy-change (2. order) :-0.1395848E-01  (-0.1423826E-01)
 number of electron      64.0000003 magnetization      -1.9259260
 augmentation part       16.5562569 magnetization      -0.5017386

 Free energy of the ion-electron system (eV)
  ---------------------------------------------------
  alpha Z        PSCENC =         9.40909239
  Ewald energy   TEWEN  =      3424.04264625
  -Hartree energ DENC   =    -11972.18688287
  -exchange      EXHF   =         0.00000000
  -V(xc)+E(xc)   XCENC  =       247.85204967
  PAW double counting   =      9065.37556016    -8928.58711650
  entropy T*S    EENTRO =        -0.01558881
  eigenvalues    EBANDS =     -1571.78656244
  atomic energy  EATOM  =      9712.94829911
  ---------------------------------------------------
  free energy    TOTEN  =       -12.95377799 eV

  energy without entropy =      -12.93818918  energy(sigma->0) =      -12.94598358


--------------------------------------------------------------------------------------------------------




--------------------------------------- Iteration      1(  28)  ---------------------------------------


    POTLOK:  cpu time      0.2757: real time      0.1727
    SETDIJ:  cpu time      0.0231: real time      0.0232
    TRIAL :  cpu time      2.6352: real time      1.8671
    CORREC:  cpu time      2.2307: real time      1.9099
    CHARGE:  cpu time      0.8743: real time      0.8757
    --------------------------------------------
      LOOP:  cpu time      6.0404: real time      4.8502

 eigenvalue-minimisations  :     0
 total energy-change (2. order) :-0.1582341E-01  (-0.1740345E-01)
 number of electron      64.0000003 magnetization      -1.9259260
 augmentation part       16.5582328 magnetization      -0.5018909

 Free energy of the ion-electron system (eV)
  ---------------------------------------------------
  alpha Z        PSCENC =         9.40909239
  Ewald energy   TEWEN  =      3424.04264625
  -Hartree energ DENC   =    -11971.69663017
  -exchange      EXHF   =         0.00000000
  -V(xc)+E(xc)   XCENC  =       247.90005232
  PAW double counting   =      9054.51555360    -8917.66780699
  entropy T*S    EENTRO =        -0.01088306
  eigenvalues    EBANDS =     -1572.40521908
  atomic energy  EATOM  =      9712.94829911
  ---------------------------------------------------
  free energy    TOTEN  =       -12.96960139 eV

  energy without entropy =      -12.95871833  energy(sigma->0) =      -12.96415986


--------------------------------------------------------------------------------------------------------




--------------------------------------- Iteration      1(  29)  ---------------------------------------


    POTLOK:  cpu time      0.2748: real time      0.1722
    SETDIJ:  cpu time      0.0231: real time      0.0231
    TRIAL :  cpu time      2.6165: real time      1.8583
    CORREC:  cpu time      2.2355: real time      1.9142
    CHARGE:  cpu time      0.8700: real time      0.8713
    --------------------------------------------
      LOOP:  cpu time      6.0214: real time      4.8409

 eigenvalue-minimisations  :     0
 total energy-change (2. order) :-0.1451361E-01  (-0.1439756E-01)
 number of electron      64.0000003 magnetization      -1.9259261
 augmentation part       16.5537943 magnetization      -0.5026272

 Free energy of the ion-electron system (eV)
  ---------------------------------------------------
  alpha Z        PSCENC =         9.40909239
  Ewald energy   TEWEN  =      3424.04264625
  -Hartree energ DENC   =    -11970.14282489
  -exchange      EXHF   =         0.00000000
  -V(xc)+E(xc)   XCENC  =       247.91245091
  PAW double counting   =      9045.88267735    -8909.04515025
  entropy T*S    EENTRO =        -0.00792367
  eigenvalues    EBANDS =     -1573.98042281
  atomic energy  EATOM  =      9712.94829911
  ---------------------------------------------------
  free energy    TOTEN  =       -12.98411500 eV

  energy without entropy =      -12.97619133  energy(sigma->0) =      -12.98015316


--------------------------------------------------------------------------------------------------------




--------------------------------------- Iteration      1(  30)  ---------------------------------------


    POTLOK:  cpu time      0.2761: real time      0.1728
    SETDIJ:  cpu time      0.0233: real time      0.0234
    TRIAL :  cpu time      2.6130: real time      1.8554
    CORREC:  cpu time      2.2279: real time      1.9059
    CHARGE:  cpu time      0.8825: real time      0.8839
    --------------------------------------------
      LOOP:  cpu time      6.0245: real time      4.8434

 eigenvalue-minimisations  :     0
 total energy-change (2. order) :-0.1412066E-01  (-0.2082437E-01)
 number of electron      64.0000003 magnetization      -1.9259306
 augmentation part       16.5426277 magnetization      -0.5022747

 Free energy of the ion-electron system (eV)
  ---------------------------------------------------
  alpha Z        PSCENC =         9.40909239
  Ewald energy   TEWEN  =      3424.04264625
  -Hartree energ DENC   =    -11968.63105227
  -exchange      EXHF   =         0.00000000
  -V(xc)+E(xc)   XCENC  =       247.88753942
  PAW double counting   =      9043.89571268    -8907.15039676
  entropy T*S    EENTRO =        -0.00595461
  eigenvalues    EBANDS =     -1575.39215282
  atomic energy  EATOM  =      9712.94829911
  ---------------------------------------------------
  free energy    TOTEN  =       -12.99823566 eV

  energy without entropy =      -12.99228105  energy(sigma->0) =      -12.99525836


--------------------------------------------------------------------------------------------------------




--------------------------------------- Iteration      1(  31)  ---------------------------------------


    POTLOK:  cpu time      0.2747: real time      0.1722
    SETDIJ:  cpu time      0.0224: real time      0.0224
    TRIAL :  cpu time      2.6307: real time      1.8686
    CORREC:  cpu time      2.2509: real time      1.9254
    CHARGE:  cpu time      0.8738: real time      0.8752
    --------------------------------------------
      LOOP:  cpu time      6.0540: real time      4.8657

 eigenvalue-minimisations  :     0
 total energy-change (2. order) :-0.2114812E-01  (-0.9436369E-02)
 number of electron      64.0000003 magnetization      -1.9259547
 augmentation part       16.5370288 magnetization      -0.5009911

 Free energy of the ion-electron system (eV)
  ---------------------------------------------------
  alpha Z        PSCENC =         9.40909239
  Ewald energy   TEWEN  =      3424.04264625
  -Hartree energ DENC   =    -11967.17878084
  -exchange      EXHF   =         0.00000000
  -V(xc)+E(xc)   XCENC  =       247.82354398
  PAW double counting   =      9047.33199852    -8910.77755031
  entropy T*S    EENTRO =        -0.00546523
  eigenvalues    EBANDS =     -1576.61267827
  atomic energy  EATOM  =      9712.94829911
  ---------------------------------------------------
  free energy    TOTEN  =       -13.01938378 eV

  energy without entropy =      -13.01391855  energy(sigma->0) =      -13.01665116


--------------------------------------------------------------------------------------------------------




--------------------------------------- Iteration      1(  32)  ---------------------------------------


    POTLOK:  cpu time      0.2756: real time      0.1724
    SETDIJ:  cpu time      0.0237: real time      0.0237
    TRIAL :  cpu time      2.6278: real time      1.8640
    CORREC:  cpu time      2.2331: real time      1.9113
    CHARGE:  cpu time      0.8718: real time      0.8732
    --------------------------------------------
      LOOP:  cpu time      6.0343: real time      4.8471

 eigenvalue-minimisations  :     0
 total energy-change (2. order) :-0.9800995E-02  (-0.1199860E-01)
 number of electron      64.0000003 magnetization      -1.9263276
 augmentation part       16.5320382 magnetization      -0.4994223

 Free energy of the ion-electron system (eV)
  ---------------------------------------------------
  alpha Z        PSCENC =         9.40909239
  Ewald energy   TEWEN  =      3424.04264625
  -Hartree energ DENC   =    -11967.02056736
  -exchange      EXHF   =         0.00000000
  -V(xc)+E(xc)   XCENC  =       247.79505800
  PAW double counting   =      9050.05889035    -8913.60127644
  entropy T*S    EENTRO =        -0.00490962
  eigenvalues    EBANDS =     -1576.65586183
  atomic energy  EATOM  =      9712.94829911
  ---------------------------------------------------
  free energy    TOTEN  =       -13.02918477 eV

  energy without entropy =      -13.02427516  energy(sigma->0) =      -13.02672996


--------------------------------------------------------------------------------------------------------




--------------------------------------- Iteration      1(  33)  ---------------------------------------


    POTLOK:  cpu time      0.2758: real time      0.1726
    SETDIJ:  cpu time      0.0234: real time      0.0234
    TRIAL :  cpu time      2.6364: real time      1.8682
    CORREC:  cpu time      2.2245: real time      1.9044
    CHARGE:  cpu time      0.8728: real time      0.8742
    --------------------------------------------
      LOOP:  cpu time      6.0335: real time      4.8436

 eigenvalue-minimisations  :     0
 total energy-change (2. order) :-0.1205577E-01  (-0.9074751E-02)
 number of electron      64.0000003 magnetization      -1.9302586
 augmentation part       16.5301601 magnetization      -0.4995911

 Free energy of the ion-electron system (eV)
  ---------------------------------------------------
  alpha Z        PSCENC =         9.40909239
  Ewald energy   TEWEN  =      3424.04264625
  -Hartree energ DENC   =    -11967.34243661
  -exchange      EXHF   =         0.00000000
  -V(xc)+E(xc)   XCENC  =       247.77773111
  PAW double counting   =      9052.51255338    -8916.14861401
  entropy T*S    EENTRO =        -0.00455937
  eigenvalues    EBANDS =     -1576.23560255
  atomic energy  EATOM  =      9712.94829911
  ---------------------------------------------------
  free energy    TOTEN  =       -13.04124055 eV

  energy without entropy =      -13.03668118  energy(sigma->0) =      -13.03896086


--------------------------------------------------------------------------------------------------------




--------------------------------------- Iteration      1(  34)  ---------------------------------------


    POTLOK:  cpu time      0.2806: real time      0.1753
    SETDIJ:  cpu time      0.0235: real time      0.0235
    TRIAL :  cpu time      2.6224: real time      1.8602
    CORREC:  cpu time      2.2521: real time      1.9272
    CHARGE:  cpu time      0.8839: real time      0.8853
    --------------------------------------------
      LOOP:  cpu time      6.0651: real time      4.8744

 eigenvalue-minimisations  :     0
 total energy-change (2. order) :-0.9076745E-02  (-0.5313692E-02)
 number of electron      64.0000003 magnetization      -1.9442075
 augmentation part       16.5305442 magnetization      -0.5021834

 Free energy of the ion-electron system (eV)
  ---------------------------------------------------
  alpha Z        PSCENC =         9.40909239
  Ewald energy   TEWEN  =      3424.04264625
  -Hartree energ DENC   =    -11967.35863566
  -exchange      EXHF   =         0.00000000
  -V(xc)+E(xc)   XCENC  =       247.77364533
  PAW double counting   =      9052.45732354    -8916.13699085
  entropy T*S    EENTRO =        -0.00454555
  eigenvalues    EBANDS =     -1576.18113803
  atomic energy  EATOM  =      9712.94829911
  ---------------------------------------------------
  free energy    TOTEN  =       -13.05031729 eV

  energy without entropy =      -13.04577174  energy(sigma->0) =      -13.04804451


--------------------------------------------------------------------------------------------------------




--------------------------------------- Iteration      1(  35)  ---------------------------------------


    POTLOK:  cpu time      0.2776: real time      0.1733
    SETDIJ:  cpu time      0.0235: real time      0.0235
    TRIAL :  cpu time      2.6354: real time      1.8690
    CORREC:  cpu time      2.2321: real time      1.9057
    CHARGE:  cpu time      0.8833: real time      0.8848
    --------------------------------------------
      LOOP:  cpu time      6.0532: real time      4.8578

 eigenvalue-minimisations  :     0
 total energy-change (2. order) :-0.5223698E-02  (-0.5380918E-02)
 number of electron      64.0000003 magnetization      -1.9886223
 augmentation part       16.5310863 magnetization      -0.5089995

 Free energy of the ion-electron system (eV)
  ---------------------------------------------------
  alpha Z        PSCENC =         9.40909239
  Ewald energy   TEWEN  =      3424.04264625
  -Hartree energ DENC   =    -11966.61699476
  -exchange      EXHF   =         0.00000000
  -V(xc)+E(xc)   XCENC  =       247.77223025
  PAW double counting   =      9049.96279829    -8913.65255383
  entropy T*S    EENTRO =        -0.00468838
  eigenvalues    EBANDS =     -1576.91651313
  atomic energy  EATOM  =      9712.94829911
  ---------------------------------------------------
  free energy    TOTEN  =       -13.05554099 eV

  energy without entropy =      -13.05085261  energy(sigma->0) =      -13.05319680


--------------------------------------------------------------------------------------------------------




--------------------------------------- Iteration      1(  36)  ---------------------------------------


    POTLOK:  cpu time      0.2780: real time      0.1736
    SETDIJ:  cpu time      0.0228: real time      0.0229
    TRIAL :  cpu time      2.6233: real time      1.8634
    CORREC:  cpu time      2.2353: real time      1.9155
[...]
  band No.  band energies     occupation 
      1     -56.3931      1.00000
      2     -56.1129      1.00000
      3     -55.8858      1.00000
      4     -55.8647      1.00000
      5     -55.7496      1.00000
      6     -55.7415      1.00000
      7     -55.6748      1.00000
      8     -55.6170      1.00000
      9     -55.4138      1.00000
     10     -55.4018      1.00000
     11     -55.0682      1.00000
     12     -54.9554      1.00000
     13      -9.9791      1.00000
     14      -8.2140      1.00000
     15      -8.0790      1.00000
     16      -7.9814      1.00000
     17      -7.4810      1.00000
     18      -7.1368      1.00000
     19      -7.0134      1.00000
     20      -6.6634      1.00000
     21      -6.4186      1.00000
     22      -6.1287      1.00000
     23      -5.3611      1.00000
     24      -5.1849      1.00000
     25      -5.1636      1.00000
     26      -5.1296      1.00000
     27      -4.9351      1.00000
     28      -4.8649      1.00000
     29      -4.8432      1.00000
     30      -4.8064      1.00000
     31      -4.7169      1.00000
     32      -4.5897      1.00000
     33      -4.2416      1.00000
     34      -3.8723      0.00022
     35      -3.7519      0.00000
     36      -3.4259      0.00000
     37      -1.0149      0.00000
     38      -0.4546      0.00000
     39      -0.3637      0.00000
     40      -0.3555      0.00000
     41       0.0376      0.00000
     42       0.2124      0.00000

 k-point    13 :      -0.3333    0.3333   -0.3333
  band No.  band energies     occupation 
      1     -56.3931      1.00000
      2     -56.1129      1.00000
      3     -55.8858      1.00000
      4     -55.8647      1.00000
      5     -55.7496      1.00000
      6     -55.7415      1.00000
      7     -55.6748      1.00000
      8     -55.6170      1.00000
      9     -55.4138      1.00000
     10     -55.4018      1.00000
     11     -55.0682      1.00000
     12     -54.9554      1.00000
     13      -9.9791      1.00000
     14      -8.2140      1.00000
     15      -8.0790      1.00000
     16      -7.9814      1.00000
     17      -7.4810      1.00000
     18      -7.1368      1.00000
     19      -7.0134      1.00000
     20      -6.6634      1.00000
     21      -6.4186      1.00000
     22      -6.1287      1.00000
     23      -5.3611      1.00000
     24      -5.1849      1.00000
     25      -5.1636      1.00000
     26      -5.1296      1.00000
     27      -4.9351      1.00000
     28      -4.8649      1.00000
     29      -4.8432      1.00000
     30      -4.8064      1.00000
     31      -4.7169      1.00000
     32      -4.5897      1.00000
     33      -4.2416      1.00000
     34      -3.8723      0.00022
     35      -3.7519      0.00000
     36      -3.4259      0.00000
     37      -1.0149      0.00000
     38      -0.4546      0.00000
     39      -0.3636      0.00000
     40      -0.3556      0.00000
     41       0.0376      0.00000
     42       0.2179      0.00000

 k-point    14 :      -0.3333   -0.3333    0.3333
  band No.  band energies     occupation 
      1     -56.3931      1.00000
      2     -56.1129      1.00000
      3     -55.8858      1.00000
      4     -55.8647      1.00000
      5     -55.7496      1.00000
      6     -55.7415      1.00000
      7     -55.6748      1.00000
      8     -55.6170      1.00000
      9     -55.4138      1.00000
     10     -55.4018      1.00000
     11     -55.0682      1.00000
     12     -54.9554      1.00000
     13      -9.9791      1.00000
     14      -8.2140      1.00000
     15      -8.0790      1.00000
     16      -7.9814      1.00000
     17      -7.4810      1.00000
     18      -7.1368      1.00000
     19      -7.0134      1.00000
     20      -6.6634      1.00000
     21      -6.4186      1.00000
     22      -6.1287      1.00000
     23      -5.3611      1.00000
     24      -5.1849      1.00000
     25      -5.1636      1.00000
     26      -5.1296      1.00000
     27      -4.9351      1.00000
     28      -4.8649      1.00000
     29      -4.8432      1.00000
     30      -4.8064      1.00000
     31      -4.7169      1.00000
     32      -4.5897      1.00000
     33      -4.2416      1.00000
     34      -3.8723      0.00022
     35      -3.7519      0.00000
     36      -3.4259      0.00000
     37      -1.0149      0.00000
     38      -0.4546      0.00000
     39      -0.3636      0.00000
     40      -0.3556      0.00000
     41       0.0378      0.00000
     42       0.2822      0.00000


--------------------------------------------------------------------------------------------------------


 soft charge-density along one line, spin component            1
         0         1         2         3         4         5         6         7         8         9
 total charge-density along one line
 
 soft charge-density along one line, spin component            2
         0         1         2         3         4         5         6         7         8         9
 total charge-density along one line
 
 pseudopotential strength for first ion, spin component:            1
-36.592  -0.048  -0.025  15.781   0.047   0.027  -0.046  -0.043
 -0.048 -36.593  -0.025   0.047  15.782   0.027   0.003  -0.043
 -0.025  -0.025 -36.578   0.027   0.027  15.768  -0.042   0.003
 15.781   0.047   0.027  14.290  -0.014  -0.004   0.028   0.026
  0.047  15.782   0.027  -0.014  14.290  -0.004  -0.005   0.026
  0.027   0.027  15.768  -0.004  -0.004  14.296   0.025  -0.005
 -0.046   0.003  -0.042   0.028  -0.005   0.025  -7.004  -0.017
 -0.043  -0.043   0.003   0.026   0.026  -0.005  -0.017  -7.010
  0.026  -0.053   0.027  -0.015   0.031  -0.016   0.015  -0.012
  0.003  -0.046  -0.042  -0.005   0.028   0.025  -0.027  -0.017
  0.046   0.000  -0.047  -0.027  -0.000   0.028  -0.001   0.021
 -0.052   0.003  -0.048   0.031  -0.005   0.028  -7.633  -0.019
 -0.048  -0.048   0.003   0.029   0.029  -0.005  -0.019  -7.639
  0.029  -0.059   0.031  -0.017   0.035  -0.018   0.017  -0.014
  0.003  -0.052  -0.047  -0.005   0.031   0.028  -0.031  -0.019
  0.052   0.000  -0.053  -0.031  -0.000   0.031  -0.001   0.024
  0.034   0.034   0.037  -0.004  -0.004  -0.005   0.017   0.027
 -0.071  -0.070  -0.076   0.006   0.006   0.009  -0.033  -0.054
 pseudopotential strength for first ion, spin component:            2
-36.690  -0.051  -0.027  15.892   0.055   0.032  -0.041  -0.038
 -0.051 -36.691  -0.028   0.055  15.893   0.032  -0.007  -0.038
 -0.027  -0.028 -36.673   0.032   0.032  15.872  -0.038  -0.007
 15.892   0.055   0.032  14.272  -0.014  -0.005   0.021   0.019
  0.055  15.893   0.032  -0.014  14.272  -0.005   0.005   0.019
  0.032   0.032  15.872  -0.005  -0.005  14.277   0.019   0.005
 -0.041  -0.007  -0.038   0.021   0.005   0.019  -7.132   0.014
 -0.038  -0.038  -0.007   0.019   0.019   0.005   0.014  -7.149
  0.023  -0.046   0.025  -0.012   0.023  -0.013   0.047  -0.029
 -0.007  -0.041  -0.038   0.005   0.021   0.019   0.001   0.014
  0.040  -0.000  -0.043  -0.020   0.000   0.023  -0.000   0.050
 -0.046  -0.008  -0.043   0.024   0.005   0.022  -7.776   0.015
 -0.042  -0.042  -0.008   0.021   0.021   0.005   0.015  -7.795
  0.026  -0.052   0.028  -0.013   0.025  -0.015   0.052  -0.033
 -0.008  -0.046  -0.042   0.005   0.024   0.022   0.001   0.016
  0.045  -0.000  -0.049  -0.022   0.000   0.025  -0.000   0.056
  0.023   0.023   0.026  -0.001  -0.001  -0.003   0.021   0.033
 -0.044  -0.044  -0.052   0.002   0.002   0.005  -0.041  -0.066
 total augmentation occupancy for first ion, spin component:            1
  2.000   0.000   0.000  -0.006   0.001   0.001  -0.003  -0.000   0.000  -0.010   0.002   0.007   0.006  -0.002   0.004  -0.005
  0.000   2.000   0.000   0.001  -0.006   0.001  -0.010  -0.000  -0.002  -0.003   0.001   0.004   0.006   0.005   0.007  -0.001
  0.000   0.000   2.000   0.001   0.001  -0.006  -0.000  -0.008   0.003  -0.000  -0.005   0.006  -0.000  -0.004   0.006   0.007
 -0.006   0.001   0.001   0.017   0.001   0.001  -0.102  -0.104   0.046   0.031   0.081   0.089   0.089  -0.044  -0.013  -0.076
  0.001  -0.006   0.001   0.001   0.017   0.001   0.031  -0.103  -0.095  -0.103   0.001  -0.013   0.089   0.089   0.090   0.000
  0.001   0.001  -0.006   0.001   0.001   0.015  -0.097   0.026   0.040  -0.098  -0.070   0.080  -0.000  -0.038   0.081   0.066
 -0.003  -0.010  -0.000  -0.102   0.031  -0.097   3.934   0.246  -0.844   0.190  -0.047  -1.707  -0.211   0.706  -0.160   0.041
 -0.000  -0.000  -0.008  -0.104  -0.103   0.026   0.246   3.995   0.419   0.242  -0.720  -0.213  -1.770  -0.350  -0.210   0.601
  0.000  -0.002   0.003   0.046  -0.095   0.040  -0.844   0.419   3.606   0.465   0.040   0.684  -0.339  -1.443  -0.380  -0.035
 -0.010  -0.003  -0.000   0.031  -0.103  -0.098   0.190   0.242   0.465   3.942   0.709  -0.160  -0.208  -0.391  -1.714  -0.593
  0.002   0.001  -0.005   0.081   0.001  -0.070  -0.047  -0.720   0.040   0.709   3.549   0.042   0.582  -0.035  -0.573  -1.392
  0.007   0.004   0.006   0.089  -0.013   0.080  -1.707  -0.213   0.684  -0.160   0.042   1.291   0.273  -0.454   0.194  -0.042
  0.006   0.006  -0.000   0.089   0.089  -0.000  -0.211  -1.770  -0.339  -0.208   0.582   0.273   1.312   0.215   0.272  -0.369
 -0.002   0.005  -0.004  -0.044   0.089  -0.038   0.706  -0.350  -1.443  -0.391  -0.035  -0.454   0.215   1.198   0.266   0.032
  0.004   0.007   0.006  -0.013   0.090   0.081  -0.160  -0.210  -0.380  -1.714  -0.573   0.194   0.272   0.266   1.296   0.374
 -0.005  -0.001   0.007  -0.076   0.000   0.066   0.041   0.601  -0.035  -0.593  -1.392  -0.042  -0.369   0.032   0.374   1.154
  0.012   0.012   0.012  -0.068  -0.068  -0.070   0.338   0.326   0.013   0.339  -0.017  -0.417  -0.386  -0.016  -0.418   0.022
 -0.005  -0.005  -0.006  -0.001  -0.001  -0.001   0.002  -0.002  -0.000   0.002   0.001  -0.008  -0.008  -0.000  -0.008   0.000
 total augmentation occupancy for first ion, spin component:            2
 -0.001   0.000   0.000  -0.001  -0.001  -0.000  -0.016  -0.018   0.009   0.019   0.018   0.018   0.020  -0.011  -0.025  -0.021
  0.000  -0.001   0.000  -0.001  -0.001  -0.000   0.019  -0.017  -0.020  -0.016   0.001  -0.025   0.020   0.024   0.018  -0.001
  0.000   0.000  -0.001  -0.000  -0.000  -0.001  -0.014   0.018   0.007  -0.014  -0.012   0.016  -0.023  -0.008   0.016   0.014
 -0.001  -0.001  -0.000  -0.003   0.002   0.001  -0.003  -0.006  -0.000   0.004   0.003  -0.013  -0.011   0.009   0.024   0.014
 -0.001  -0.001  -0.000   0.002  -0.003   0.001   0.004  -0.006  -0.002  -0.003   0.002   0.024  -0.011  -0.017  -0.013  -0.001
 -0.000  -0.000  -0.001   0.001   0.001  -0.001  -0.006   0.007   0.001  -0.006  -0.002  -0.006   0.016   0.005  -0.006  -0.009
 -0.016   0.019  -0.014  -0.003   0.004  -0.006   0.124  -0.031  -0.041  -0.029   0.003  -0.060   0.016   0.016  -0.000  -0.006
 -0.018  -0.017   0.018  -0.006  -0.006   0.007  -0.031   0.123   0.017  -0.031  -0.030   0.016  -0.068  -0.011   0.015   0.019
  0.009  -0.020   0.007  -0.000  -0.002   0.001  -0.041   0.017   0.069   0.018  -0.013  -0.006   0.000  -0.028   0.009   0.006
  0.019  -0.016  -0.014   0.004  -0.003  -0.006  -0.029  -0.031   0.018   0.124   0.036  -0.000   0.016  -0.003  -0.059  -0.017
  0.018   0.001  -0.012   0.003   0.002  -0.002   0.003  -0.030  -0.013   0.036   0.084  -0.006  -0.000   0.006   0.002  -0.036
  0.018  -0.025   0.016  -0.013   0.024  -0.006  -0.060   0.016  -0.006  -0.000  -0.006  -0.161   0.084   0.125   0.104   0.012
  0.020   0.020  -0.023  -0.011  -0.011   0.016   0.016  -0.068   0.000   0.016  -0.000   0.084  -0.182  -0.059   0.085   0.101
 -0.011   0.024  -0.008   0.009  -0.017   0.005   0.016  -0.011  -0.028  -0.003   0.006   0.125  -0.059  -0.073  -0.073  -0.002
 -0.025   0.018   0.016   0.024  -0.013  -0.006  -0.000   0.015   0.009  -0.059   0.002   0.104   0.085  -0.073  -0.162  -0.102
 -0.021  -0.001   0.014   0.014  -0.001  -0.009  -0.006   0.019   0.006  -0.017  -0.036   0.012   0.101  -0.002  -0.102  -0.070
 -0.003  -0.003  -0.004  -0.004  -0.004   0.001  -0.004  -0.003  -0.005  -0.004   0.008   0.014  -0.019  -0.008   0.013   0.013
 -0.001  -0.001  -0.001   0.000   0.000  -0.000   0.001   0.001   0.000   0.001  -0.001  -0.001   0.001   0.000  -0.001  -0.000


------------------------ aborting loop because EDIFF is reached ----------------------------------------



 DIPCOR: dipole corrections for dipol
 direction  3 min pos     1,
 dipolmoment           0.000000      0.000000      0.000895 electrons x Angstroem
 Tr[quadrupol]     -5806.178522

 energy correction for charged system         0.000000 eV
 dipol+quadrupol energy correction            0.000000 eV
 added-field ion interaction          0.000000 eV  (added to PSCEN)

 
  *************** adding dipol energy to TOTEN NOW **************** 



 total charge

# of ion       s       p       d       tot
------------------------------------------
    1        0.322   5.990   7.315  13.627
    2        0.324   5.985   7.320  13.629
    3        0.324   5.985   7.320  13.630
    4        0.322   5.990   7.315  13.627
--------------------------------------------------
tot          1.293  23.950  29.269  54.512



 magnetization (x)

# of ion       s       p       d       tot
------------------------------------------
    1        0.006  -0.008  -0.637  -0.640
    2        0.002  -0.000  -0.222  -0.220
    3        0.003  -0.000  -0.218  -0.216
    4        0.006  -0.008  -0.637  -0.639
--------------------------------------------------
tot          0.017  -0.017  -1.714  -1.714
 
    FORLOC:  cpu time      0.0235: real time      0.0234
    FORNL :  cpu time      0.3858: real time      0.3819
    STRESS:  cpu time      1.1721: real time      1.1588
    FORCOR:  cpu time      0.1952: real time      0.1185
    OFIELD:  cpu time      0.0077: real time      0.0077

  FORCE on cell =-STRESS in cart. coord.  units (eV):
  Direction    XX          YY          ZZ          XY          YZ          ZX
  --------------------------------------------------------------------------------------
  Alpha Z     9.40909     9.40909     9.40909
  Ewald    1354.17283  1188.13527   877.59011     0.28554   -34.64483    -1.37981
  Hartree  4212.55663  4028.93082  3721.88117     0.62922   -51.69057    -1.94895
  E(xc)    -341.32095  -341.26442  -341.26137     0.00068     0.05820     0.00097
  Local   -6794.69720 -6444.25300 -5826.64130    -0.96453    96.18073     3.45683
  n-local  -145.27900  -145.54829  -145.50941     0.05093     1.92707     0.01102
  augment   291.84353   291.75540   291.72989    -0.01520    -3.25435    -0.02463
  Kinetic  1413.20566  1412.72371  1412.66164    -0.01062    -8.56753    -0.05844
  Fock        0.00000     0.00000     0.00000     0.00000     0.00000     0.00000
  -------------------------------------------------------------------------------------
  Total      -0.10942    -0.11141    -0.14017    -0.02397     0.00873     0.05700
  in kB      -0.04297    -0.04375    -0.05504    -0.00941     0.00343     0.02238
  external pressure =       -0.05 kB  Pullay stress =        0.00 kB


 VOLUME and BASIS-vectors are now :
 -----------------------------------------------------------------------------
  energy-cutoff  :      520.00
  volume of cell :     4080.00
      direct lattice vectors                 reciprocal lattice vectors
    15.000000000  0.000000000  0.000000000     0.066666667  0.000000000  0.000000000
     0.000000000 16.000000000  0.000000000     0.000000000  0.062500000  0.000000000
     0.000000000  0.000000000 17.000000000     0.000000000  0.000000000  0.058823529

  length of vectors
    15.000000000 16.000000000 17.000000000     0.066666667  0.062500000  0.058823529


 FORCES acting on ions:
    Electron-Ion                     Ewald-Force                    Non-Local-Force
 -----------------------------------------------------------------------------------------------
   -.764E+03 -.785E+03 -.791E+03   0.758E+03 0.778E+03 0.785E+03   0.658E+01 0.641E+01 0.642E+01
   0.763E+03 0.768E+03 -.770E+03   -.757E+03 -.763E+03 0.764E+03   -.633E+01 -.530E+01 0.524E+01
   0.764E+03 -.769E+03 0.771E+03   -.758E+03 0.763E+03 -.765E+03   -.638E+01 0.531E+01 -.526E+01
   -.764E+03 0.785E+03 0.790E+03   0.757E+03 -.779E+03 -.784E+03   0.657E+01 -.645E+01 -.638E+01
 -----------------------------------------------------------------------------------------------
   -.441E+00 0.254E-01 -.179E-01   0.114E-12 0.000E+00 0.000E+00   0.439E+00 -.262E-01 0.185E-01
 
 
 POSITION                                       TOTAL-FORCE (eV/Angst)
 -----------------------------------------------------------------------------------
      9.46969      9.98488     10.48774         0.011999     -0.003632      0.021097
      7.69309      8.13351     10.53165         0.019622      0.010557     -0.016439
      7.69635     10.03102      8.63547        -0.024486      0.004513     -0.015937
      9.47100      8.18072      8.67526        -0.007136     -0.011438      0.011279
 -----------------------------------------------------------------------------------
    total drift:                               -0.001531     -0.000757      0.000626


--------------------------------------------------------------------------------------------------------



  FREE ENERGIE OF THE ION-ELECTRON SYSTEM (eV)
  ---------------------------------------------------
  free  energy   TOTEN  =       -13.15244353 eV

  energy  without entropy=      -13.15238388  energy(sigma->0) =      -13.15241370
 
 d Force = 0.1358636E-04[ 0.111E-04, 0.161E-04]  d Energy =-0.3074468E-05 0.167E-04
 d Force =-0.6998147E+00[-0.700E+00,-0.700E+00]  d Ewald  =-0.6998146E+00-0.108E-06


--------------------------------------------------------------------------------------------------------


    POTLOK:  cpu time      0.3460: real time      0.2384


--------------------------------------------------------------------------------------------------------




--------------------------------------------------------------------------------------------------------


  
 reached required accuracy - stopping structural energy minimisation
     LOOP+:  cpu time     51.8197: real time     41.9258
    4ORBIT:  cpu time      0.0000: real time      0.0000



 total charge

# of ion       s       p       d       tot
------------------------------------------
    1        0.322   5.990   7.315  13.627
    2        0.324   5.985   7.320  13.629
    3        0.324   5.985   7.320  13.630
    4        0.322   5.990   7.315  13.627
--------------------------------------------------
tot          1.293  23.950  29.269  54.512



 magnetization (x)

# of ion       s       p       d       tot
------------------------------------------
    1        0.006  -0.008  -0.637  -0.640
    2        0.002  -0.000  -0.222  -0.220
    3        0.003  -0.000  -0.218  -0.216
    4        0.006  -0.008  -0.637  -0.639
--------------------------------------------------
tot          0.017  -0.017  -1.714  -1.714
 

 total amount of memory used by VASP MPI-rank0  1455021. kBytes
=======================================================================

   base      :      30000. kBytes
   nonlr-proj:       3585. kBytes
   fftplans  :      84164. kBytes
   grid      :     302400. kBytes
   one-center:        124. kBytes
   wavefun   :    1034748. kBytes
 
  
  
 General timing and accounting informations for this job:
 ========================================================
  
                  Total CPU time used (sec):     1722.992
                            User time (sec):     1311.463
                          System time (sec):      411.528
                         Elapsed time (sec):     1443.330
  
                   Maximum memory used (kb):     4517176.
                   Average memory used (kb):          N/A
  
                          Minor page faults:      1294627
                          Major page faults:            0
                 Voluntary context switches:      1094319
