 vasp.6.3.1 04May22 (build Nov  5 2022 14:28:48) complex                         
 executed on              LinuxNV date 2024.03.13  10:23:13
 running    2 mpi-ranks, with    1 threads/rank
 distrk:  each k-point on    2 cores,    1 groups
 distr:  one band on NCORE=   1 cores,    2 groups


--------------------------------------------------------------------------------------------------------


 INCAR:
   ALGO = All
   EDIFF = 1e-05
   EDIFFG = -0.03
   ENCUT = 520
   IBRION = 2
   ICHARG = 1
   ISIF = 2
   ISMEAR = 0
   ISPIN = 2
   ISYM = 0
   LPLANE = True
   LREAL = A
   LORBIT = 11
   LWAVE = False
   MAGMOM = 6*0.06
   NELM = 100
   NCORE = 16
   NSIM = 4
   NSW = 150
   PREC = Accurate
   SIGMA = 0.05

 POTCAR:    PAW_PBE Pt_pv 12Dec2005               
 POTCAR:    PAW_PBE Pt_pv 12Dec2005               
   SHA256 =  e5abf7e8cd8db70d0153315afc5ad66b6e3eeee29cc2d5b91b16730957c1d208 Pt_pv/POTCAR          
   COPYR  = (c) Copyright 12Dec2005 Georg Kresse                                                    
   COPYR  = This file is part of the software VASP. Any use, copying, and all other rights are regul
   COPYR  = If you do not have a valid VASP license, you may not use, copy or distribute this file. 
   VRHFIN =Pt: 5ps1d9                                                                               
   LEXCH  = PE                                                                                      
   EATOM  =  2428.2504 eV,  178.4714 Ry                                                             
                                                                                                    
   TITEL  = PAW_PBE Pt_pv 12Dec2005                                                                 
   LULTRA =        F    use ultrasoft PP ?                                                          
   IUNSCR =        1    unscreen: 0-lin 1-nonlin 2-no                                               
   RPACOR =    2.000    partial core radius                                                         
   POMASS =  195.080; ZVAL   =   16.000    mass and valenz                                          
   RCORE  =    2.200    outmost cutoff radius                                                       
   RWIGS  =    2.200; RWIGS  =    1.164    wigner-seitz radius (au A)                               
   ENMAX  =  294.607; ENMIN  =  220.955 eV                                                          
   ICORE  =        3    local potential                                                             
   LCOR   =        T    correct aug charges                                                         
   LPAW   =        T    paw PP                                                                      
   EAUG   =  527.014                                                                                
   DEXC   =    0.000                                                                                
   RMAX   =    2.247    core radius for proj-oper                                                   
   RAUG   =    1.300    factor for augmentation sphere                                              
   RDEP   =    2.279    radius for radial grids                                                     
   RDEPT  =    1.878    core radius for aug-charge                                                  
                                                                                                    
   Atomic configuration                                                                             
   16 entries                                                                                       
     n  l   j            E        occ.                                                              
     1  0  0.50    -78401.1885   2.0000                                                             
     2  0  0.50    -13770.7750   2.0000                                                             
     2  1  1.50    -11931.0468   6.0000                                                             
     3  0  0.50     -3234.7234   2.0000                                                             
     3  1  1.50     -2699.2216   6.0000                                                             
     3  2  2.50     -2119.5714  10.0000                                                             
     4  0  0.50      -695.1528   2.0000                                                             
     4  1  1.50      -519.6034   6.0000                                                             
     4  2  2.50      -306.6786  10.0000                                                             
     4  3  3.50       -70.1041  14.0000                                                             
     5  0  0.50      -101.7747   2.0000                                                             
     5  1  1.50       -55.9873   6.0000                                                             
     6  1  1.50        -6.8029   0.0000                                                             
     5  2  2.50        -6.1423   9.0000                                                             
     6  0  0.50        -5.6573   1.0000                                                             
     5  3  2.50        -1.3606   0.0000                                                             
   Description                                                                                      
     l       E           TYP  RCUT    TYP  RCUT                                                     
     1    -55.9873477     23  2.000                                                                 
     1     27.2116520     23  2.000                                                                 
     2     -6.1423404     23  2.200                                                                 
     2     -4.6754623     23  2.200                                                                 
     0     -5.6573207     23  2.200                                                                 
     0     47.6203910     23  2.200                                                                 
     3      6.8029130     23  2.200                                                                 
  local pseudopotential read in
  partial core-charges read in
  partial kinetic energy density read in
  atomic valenz-charges read in
  non local Contribution for L=            1  read in
    real space projection operators read in
  non local Contribution for L=            1  read in
    real space projection operators read in
  non local Contribution for L=            2  read in
    real space projection operators read in
  non local Contribution for L=            2  read in
    real space projection operators read in
  non local Contribution for L=            0  read in
    real space projection operators read in
  non local Contribution for L=            0  read in
    real space projection operators read in
    PAW grid and wavefunctions read in
 
   number of l-projection  operators is LMAX  =            6
   number of lm-projection operators is LMMAX =           18
 
 -----------------------------------------------------------------------------
|                                                                             |
|               ----> ADVICE to this user running VASP <----                  |
|                                                                             |
|     You have a (more or less) 'small supercell' and for smaller cells       |
|     it is recommended to use the reciprocal-space projection scheme!        |
|     The real-space optimization is not efficient for small cells and it     |
|     is also less accurate ...                                               |
|     Therefore, set LREAL=.FALSE. in the INCAR file.                         |
|                                                                             |
 -----------------------------------------------------------------------------

 Optimization of the real space projectors (new method)

 maximal supplied QI-value         = 17.01
 optimisation between [QCUT,QGAM] = [ 11.57, 23.30] = [ 37.45,152.03] Ry 
 Optimized for a Real-space Cutoff    1.45 Angstroem

   l    n(q)    QCUT    max X(q) W(low)/X(q) W(high)/X(q)  e(spline) 
   1     10    11.565     2.562    0.35E-04    0.59E-04    0.63E-07
   1     10    11.565     3.505    0.10E-03    0.15E-03    0.18E-06
   2      9    11.565    75.314    0.14E-03    0.66E-04    0.16E-06
   2      9    11.565    69.548    0.14E-03    0.66E-04    0.16E-06
   0     10    11.565    24.655    0.77E-04    0.17E-04    0.11E-06
   0     10    11.565    11.003    0.52E-04    0.14E-04    0.85E-07
  PAW_PBE Pt_pv 12Dec2005               :
 energy of atom  1       EATOM=-2428.2504
 kinetic energy error for atom=    0.0133 (will be added to EATOM!!)
 
 
 POSCAR: Platinum (Pt) Crystal
  positions in direct lattice
  velocities in cartesian coordinates
 exchange correlation table for  LEXCH =        8
   RHO(1)=    0.500       N(1)  =     2000
   RHO(2)=  100.500       N(2)  =     4000
 


--------------------------------------------------------------------------------------------------------


 ion  position               nearest neighbor table
   1  0.419  0.455  0.559-   2 2.45   4 2.45
   2  0.582  0.454  0.559-   1 2.45   3 2.45
   3  0.581  0.607  0.559-   4 2.45   2 2.45
   4  0.418  0.608  0.559-   3 2.45   1 2.45
 

IMPORTANT INFORMATION: All symmetrisations will be switched off!
NOSYMM: (Re-)initialisation of all symmetry stuff for point group C_1.


----------------------------------------------------------------------------------------

                                     Primitive cell                                     

  volume of cell :    4080.0000

  direct lattice vectors                    reciprocal lattice vectors
    15.000000000  0.000000000  0.000000000     0.066666667  0.000000000  0.000000000
     0.000000000 16.000000000  0.000000000     0.000000000  0.062500000  0.000000000
     0.000000000  0.000000000 17.000000000     0.000000000  0.000000000  0.058823529

  length of vectors
    15.000000000 16.000000000 17.000000000     0.066666667  0.062500000  0.058823529

  position of ions in fractional coordinates (direct lattice)
     0.419122020  0.455224125  0.558856836
     0.582156102  0.453999734  0.558928809
     0.580862926  0.607278362  0.558800336
     0.417858953  0.608497780  0.558708138

  ion indices of the primitive-cell ions
   primitive index   ion index
                 1           1
                 2           2
                 3           3
                 4           4

----------------------------------------------------------------------------------------

 
 
 KPOINTS: Kpoints                                 

Automatic generation of k-mesh.
 Grid dimensions read from file:
 generate k-points for:    4    4    4

 Generating k-lattice:

  Cartesian coordinates                     Fractional coordinates (reciprocal lattice)
     0.016666667  0.000000000  0.000000000     0.250000000  0.000000000  0.000000000
     0.000000000  0.015625000  0.000000000     0.000000000  0.250000000  0.000000000
     0.000000000  0.000000000  0.014705882     0.000000000  0.000000000  0.250000000

  Length of vectors
     0.016666667  0.015625000  0.014705882

  Shift w.r.t. Gamma in fractional coordinates (k-lattice)
     0.000000000  0.000000000  0.000000000

 
 Subroutine IBZKPT returns following result:
 ===========================================
 
 Found     36 irreducible k-points:
 
 Following reciprocal coordinates:
            Coordinates               Weight
  0.000000  0.000000  0.000000      1.000000
  0.250000  0.000000  0.000000      2.000000
  0.500000  0.000000  0.000000      1.000000
  0.000000  0.250000  0.000000      2.000000
  0.250000  0.250000  0.000000      2.000000
  0.250000 -0.250000  0.000000      2.000000
  0.500000  0.250000  0.000000      2.000000
  0.000000  0.500000  0.000000      1.000000
  0.250000  0.500000  0.000000      2.000000
  0.500000  0.500000  0.000000      1.000000
  0.000000  0.000000  0.250000      2.000000
  0.250000  0.000000  0.250000      2.000000
  0.250000  0.000000 -0.250000      2.000000
  0.500000  0.000000  0.250000      2.000000
  0.000000  0.250000  0.250000      2.000000
  0.000000  0.250000 -0.250000      2.000000
  0.250000  0.250000  0.250000      2.000000
  0.250000 -0.250000 -0.250000      2.000000
 -0.250000  0.250000 -0.250000      2.000000
 -0.250000 -0.250000  0.250000      2.000000
  0.500000  0.250000  0.250000      2.000000
  0.500000  0.250000 -0.250000      2.000000
  0.000000  0.500000  0.250000      2.000000
  0.250000  0.500000  0.250000      2.000000
  0.250000  0.500000 -0.250000      2.000000
  0.500000  0.500000  0.250000      2.000000
  0.000000  0.000000  0.500000      1.000000
  0.250000  0.000000  0.500000      2.000000
  0.500000  0.000000  0.500000      1.000000
  0.000000  0.250000  0.500000      2.000000
  0.250000  0.250000  0.500000      2.000000
  0.250000 -0.250000  0.500000      2.000000
  0.500000  0.250000  0.500000      2.000000
  0.000000  0.500000  0.500000      1.000000
  0.250000  0.500000  0.500000      2.000000
  0.500000  0.500000  0.500000      1.000000
 
 Following cartesian coordinates:
            Coordinates               Weight
  0.000000  0.000000  0.000000      1.000000
  0.016667  0.000000  0.000000      2.000000
  0.033333  0.000000  0.000000      1.000000
  0.000000  0.015625  0.000000      2.000000
  0.016667  0.015625  0.000000      2.000000
  0.016667 -0.015625  0.000000      2.000000
  0.033333  0.015625  0.000000      2.000000
  0.000000  0.031250  0.000000      1.000000
  0.016667  0.031250  0.000000      2.000000
  0.033333  0.031250  0.000000      1.000000
  0.000000  0.000000  0.014706      2.000000
  0.016667  0.000000  0.014706      2.000000
  0.016667  0.000000 -0.014706      2.000000
  0.033333  0.000000  0.014706      2.000000
  0.000000  0.015625  0.014706      2.000000
  0.000000  0.015625 -0.014706      2.000000
  0.016667  0.015625  0.014706      2.000000
  0.016667 -0.015625 -0.014706      2.000000
 -0.016667  0.015625 -0.014706      2.000000
 -0.016667 -0.015625  0.014706      2.000000
  0.033333  0.015625  0.014706      2.000000
  0.033333  0.015625 -0.014706      2.000000
  0.000000  0.031250  0.014706      2.000000
  0.016667  0.031250  0.014706      2.000000
  0.016667  0.031250 -0.014706      2.000000
  0.033333  0.031250  0.014706      2.000000
  0.000000  0.000000  0.029412      1.000000
  0.016667  0.000000  0.029412      2.000000
  0.033333  0.000000  0.029412      1.000000
  0.000000  0.015625  0.029412      2.000000
  0.016667  0.015625  0.029412      2.000000
  0.016667 -0.015625  0.029412      2.000000
  0.033333  0.015625  0.029412      2.000000
  0.000000  0.031250  0.029412      1.000000
  0.016667  0.031250  0.029412      2.000000
  0.033333  0.031250  0.029412      1.000000
 


--------------------------------------------------------------------------------------------------------




 Dimension of arrays:
   k-points           NKPTS =     36   k-points in BZ     NKDIM =     36   number of bands    NBANDS=     38
   number of dos      NEDOS =    301   number of ions     NIONS =      4
   non local maximal  LDIM  =      6   non local SUM 2l+1 LMDIM =     18
   total plane-waves  NPLWV = ******
   max r-space proj   IRMAX =   5304   max aug-charges    IRDMAX=  14330
   dimension x,y,z NGX =   112 NGY =  120 NGZ =  126
   dimension x,y,z NGXF=   224 NGYF=  240 NGZF=  252
   support grid    NGXF=   224 NGYF=  240 NGZF=  252
   ions per type =               4
   NGX,Y,Z   is equivalent  to a cutoff of  12.41, 12.47, 12.32 a.u.
   NGXF,Y,Z  is equivalent  to a cutoff of  24.83, 24.94, 24.64 a.u.

 SYSTEM =  unknown system                          
 POSCAR =  Platinum (Pt) Crystal                   

 Startparameter for this run:
   NWRITE =      2    write-flag & timer
   PREC   = accura    normal or accurate (medium, high low for compatibility)
   ISTART =      0    job   : 0-new  1-cont  2-samecut
   ICHARG =      1    charge: 1-file 2-atom 10-const
   ISPIN  =      2    spin polarized calculation?
   LNONCOLLINEAR =      F non collinear calculations
   LSORBIT =      F    spin-orbit coupling
   INIWAV =      1    electr: 0-lowe 1-rand  2-diag
   LASPH  =      F    aspherical Exc in radial PAW
 Electronic Relaxation 1
   ENCUT  =  520.0 eV  38.22 Ry    6.18 a.u.  27.89 29.75 31.61*2*pi/ulx,y,z
   ENINI  =  520.0     initial cutoff
   ENAUG  =  527.0 eV  augmentation charge cutoff
   NELM   =    100;   NELMIN=  2; NELMDL= -5     # of ELM steps 
   EDIFF  = 0.1E-04   stopping-criterion for ELM
   LREAL  =      T    real-space projection
   NLSPLINE    = F    spline interpolate recip. space projectors
   LCOMPAT=      F    compatible to vasp.4.4
   GGA_COMPAT  = T    GGA compatible to vasp.4.4-vasp.4.6
   LMAXPAW     = -100 max onsite density
   LMAXMIX     =    2 max onsite mixed and CHGCAR
   VOSKOWN=      0    Vosko Wilk Nusair interpolation
   ROPT   =   -0.00025
 Ionic relaxation
   EDIFFG = -.3E-01   stopping-criterion for IOM
   NSW    =    150    number of steps for IOM
   NBLOCK =      1;   KBLOCK =    150    inner block; outer block 
   IBRION =      2    ionic relax: 0-MD 1-quasi-New 2-CG
   NFREE  =      1    steps in history (QN), initial steepest desc. (CG)
   ISIF   =      2    stress and relaxation
   IWAVPR =     11    prediction:  0-non 1-charg 2-wave 3-comb
   ISYM   =      0    0-nonsym 1-usesym 2-fastsym
   LCORR  =      T    Harris-Foulkes like correction to forces

   POTIM  = 0.5000    time-step for ionic-motion
   TEIN   =    0.0    initial temperature
   TEBEG  =    0.0;   TEEND  =   0.0 temperature during run
   SMASS  =  -3.00    Nose mass-parameter (am)
   estimated Nose-frequenzy (Omega)   =  0.10E-29 period in steps = 0.13E+47 mass=  -0.514E-26a.u.
   SCALEE = 1.0000    scale energy and forces
   NPACO  =    256;   APACO  = 10.0  distance and # of slots for P.C.
   PSTRESS=    0.0 pullay stress

  Mass of Ions in am
   POMASS = 195.08
  Ionic Valenz
   ZVAL   =  16.00
  Atomic Wigner-Seitz radii
   RWIGS  =  -1.00
  virtual crystal weights 
   VCA    =   1.00
   NELECT =      64.0000    total number of electrons
   NUPDOWN=      -1.0000    fix difference up-down

 DOS related values:
   EMIN   =  10.00;   EMAX   =-10.00  energy-range for DOS
   EFERMI =   0.00
   ISMEAR =     0;   SIGMA  =   0.05  broadening in eV -4-tet -1-fermi 0-gaus

 Electronic relaxation 2 (details)
   IALGO  =     58    algorithm
   LDIAG  =      T    sub-space diagonalisation (order eigenvalues)
   LSUBROT=      F    optimize rotation matrix (better conditioning)
   TURBO    =      0    0=normal 1=particle mesh
   IRESTART =      0    0=no restart 2=restart with 2 vectors
   NREBOOT  =      0    no. of reboots
   NMIN     =      0    reboot dimension
   EREF     =   0.00    reference energy to select bands
   IMIX   =      4    mixing-type and parameters
     AMIX     =   0.40;   BMIX     =  1.00
     AMIX_MAG =   1.60;   BMIX_MAG =  1.00
     AMIN     =   0.10
     WC   =   100.;   INIMIX=   1;  MIXPRE=   1;  MAXMIX= -45

 Intra band minimization:
   WEIMIN = 0.0010     energy-eigenvalue tresh-hold
   EBREAK =  0.66E-07  absolut break condition
   DEPER  =   0.30     relativ break condition  

   TIME   =   0.40     timestep for ELM

  volume/ion in A,a.u.               =    1020.00      6883.30
  Fermi-wavevector in a.u.,A,eV,Ry     =   0.409809  0.774427  2.285008  0.167943
  Thomas-Fermi vector in A             =   1.365038
 
 Write flags
   LWAVE        =      F    write WAVECAR
   LDOWNSAMPLE  =      F    k-point downsampling of WAVECAR
   LCHARG       =      T    write CHGCAR
   LVTOT        =      F    write LOCPOT, total local potential
   LVHAR        =      F    write LOCPOT, Hartree potential only
   LELF         =      F    write electronic localiz. function (ELF)
   LORBIT       =     11    0 simple, 1 ext, 2 COOP (PROOUT), +10 PAW based schemes


 Dipole corrections
   LMONO  =      F    monopole corrections only (constant potential shift)
   LDIPOL =      F    correct potential (dipole corrections)
   IDIPOL =      0    1-x, 2-y, 3-z, 4-all directions 
   EPSILON=  1.0000000 bulk dielectric constant

 Exchange correlation treatment:
   GGA     =    --    GGA type
   LEXCH   =     8    internal setting for exchange type
   LIBXC   =     F    Libxc                    
   VOSKOWN =     0    Vosko Wilk Nusair interpolation
   LHFCALC =     F    Hartree Fock is set to
   LHFONE  =     F    Hartree Fock one center treatment
   AEXX    =    0.0000 exact exchange contribution

 Linear response parameters
   LEPSILON=     F    determine dielectric tensor
   LRPA    =     F    only Hartree local field effects (RPA)
   LNABLA  =     F    use nabla operator in PAW spheres
   LVEL    =     F    velocity operator in full k-point grid
   CSHIFT  =0.1000    complex shift for real part using Kramers Kronig
   OMEGAMAX=  -1.0    maximum frequency
   DEG_THRESHOLD= 0.2000000E-02 threshold for treating states as degnerate
   RTIME   =   -0.100 relaxation time in fs
  (WPLASMAI=    0.000 imaginary part of plasma frequency in eV, 0.658/RTIME)
   DFIELD  = 0.0000000 0.0000000 0.0000000 field for delta impulse in time
 
  Optional k-point grid parameters
   LKPOINTS_OPT  =     F    use optional k-point grid
   KPOINTS_OPT_MODE=     1    mode for optional k-point grid
 
 Orbital magnetization related:
   ORBITALMAG=     F  switch on orbital magnetization
   LCHIMAG   =     F  perturbation theory with respect to B field
   DQ        =  0.001000  dq finite difference perturbation B field
   LLRAUG    =     F  two centre corrections for induced B field



--------------------------------------------------------------------------------------------------------


 conjugate gradient relaxation of ions
 charge density and potential will be updated during run
 spin polarized calculation
 Conjugate gradient for all bands (Freysoldt, et al. PRB 79, 241103 (2009))
 preconditioned conjugated gradient                                        
 perform sub-space diagonalisation
    before iterative eigenvector-optimisation
 modified Broyden-mixing scheme, WC =      100.0
 initial mixing is a Kerker type mixing with AMIX =  0.4000 and BMIX =      1.0000
 Hartree-type preconditioning will be used
 using additional bands             6
 real space projection scheme for non local part
 use partial core corrections
 no Harris-corrections to forces 
 use gradient corrections 
 use of overlap-Matrix (Vanderbilt PP)
 Gauss-broadening in eV      SIGMA  =   0.05


--------------------------------------------------------------------------------------------------------


  energy-cutoff  :      520.00
  volume of cell :     4080.00
      direct lattice vectors                 reciprocal lattice vectors
    15.000000000  0.000000000  0.000000000     0.066666667  0.000000000  0.000000000
     0.000000000 16.000000000  0.000000000     0.000000000  0.062500000  0.000000000
     0.000000000  0.000000000 17.000000000     0.000000000  0.000000000  0.058823529

  length of vectors
    15.000000000 16.000000000 17.000000000     0.066666667  0.062500000  0.058823529


 
 k-points in units of 2pi/SCALE and weight: Kpoints                                 
   0.00000000  0.00000000  0.00000000       0.016
   0.01666667  0.00000000  0.00000000       0.031
   0.03333333  0.00000000  0.00000000       0.016
   0.00000000  0.01562500  0.00000000       0.031
   0.01666667  0.01562500  0.00000000       0.031
   0.01666667 -0.01562500  0.00000000       0.031
   0.03333333  0.01562500  0.00000000       0.031
   0.00000000  0.03125000  0.00000000       0.016
   0.01666667  0.03125000  0.00000000       0.031
   0.03333333  0.03125000  0.00000000       0.016
   0.00000000  0.00000000  0.01470588       0.031
   0.01666667  0.00000000  0.01470588       0.031
   0.01666667  0.00000000 -0.01470588       0.031
   0.03333333  0.00000000  0.01470588       0.031
   0.00000000  0.01562500  0.01470588       0.031
   0.00000000  0.01562500 -0.01470588       0.031
   0.01666667  0.01562500  0.01470588       0.031
   0.01666667 -0.01562500 -0.01470588       0.031
  -0.01666667  0.01562500 -0.01470588       0.031
  -0.01666667 -0.01562500  0.01470588       0.031
   0.03333333  0.01562500  0.01470588       0.031
   0.03333333  0.01562500 -0.01470588       0.031
   0.00000000  0.03125000  0.01470588       0.031
   0.01666667  0.03125000  0.01470588       0.031
   0.01666667  0.03125000 -0.01470588       0.031
   0.03333333  0.03125000  0.01470588       0.031
   0.00000000  0.00000000  0.02941176       0.016
   0.01666667  0.00000000  0.02941176       0.031
   0.03333333  0.00000000  0.02941176       0.016
   0.00000000  0.01562500  0.02941176       0.031
   0.01666667  0.01562500  0.02941176       0.031
   0.01666667 -0.01562500  0.02941176       0.031
   0.03333333  0.01562500  0.02941176       0.031
   0.00000000  0.03125000  0.02941176       0.016
   0.01666667  0.03125000  0.02941176       0.031
   0.03333333  0.03125000  0.02941176       0.016
 
 k-points in reciprocal lattice and weights: Kpoints                                 
   0.00000000  0.00000000  0.00000000       0.016
   0.25000000  0.00000000  0.00000000       0.031
   0.50000000  0.00000000  0.00000000       0.016
   0.00000000  0.25000000  0.00000000       0.031
   0.25000000  0.25000000  0.00000000       0.031
   0.25000000 -0.25000000  0.00000000       0.031
   0.50000000  0.25000000  0.00000000       0.031
   0.00000000  0.50000000  0.00000000       0.016
   0.25000000  0.50000000  0.00000000       0.031
   0.50000000  0.50000000  0.00000000       0.016
   0.00000000  0.00000000  0.25000000       0.031
   0.25000000  0.00000000  0.25000000       0.031
   0.25000000  0.00000000 -0.25000000       0.031
   0.50000000  0.00000000  0.25000000       0.031
   0.00000000  0.25000000  0.25000000       0.031
   0.00000000  0.25000000 -0.25000000       0.031
   0.25000000  0.25000000  0.25000000       0.031
   0.25000000 -0.25000000 -0.25000000       0.031
  -0.25000000  0.25000000 -0.25000000       0.031
  -0.25000000 -0.25000000  0.25000000       0.031
   0.50000000  0.25000000  0.25000000       0.031
   0.50000000  0.25000000 -0.25000000       0.031
   0.00000000  0.50000000  0.25000000       0.031
   0.25000000  0.50000000  0.25000000       0.031
   0.25000000  0.50000000 -0.25000000       0.031
   0.50000000  0.50000000  0.25000000       0.031
   0.00000000  0.00000000  0.50000000       0.016
   0.25000000  0.00000000  0.50000000       0.031
   0.50000000  0.00000000  0.50000000       0.016
   0.00000000  0.25000000  0.50000000       0.031
   0.25000000  0.25000000  0.50000000       0.031
   0.25000000 -0.25000000  0.50000000       0.031
   0.50000000  0.25000000  0.50000000       0.031
   0.00000000  0.50000000  0.50000000       0.016
   0.25000000  0.50000000  0.50000000       0.031
   0.50000000  0.50000000  0.50000000       0.016
 
 position of ions in fractional coordinates (direct lattice) 
   0.41912202  0.45522413  0.55885684
   0.58215610  0.45399973  0.55892881
   0.58086293  0.60727836  0.55880034
   0.41785895  0.60849778  0.55870814
 
 position of ions in cartesian coordinates  (Angst):
   6.28683030  7.28358600  9.50056620
   8.73234153  7.26399574  9.50178975
   8.71294388  9.71645379  9.49960571
   6.26788429  9.73596448  9.49803834
 


--------------------------------------------------------------------------------------------------------


 k-point   1 :   0.0000 0.0000 0.0000  plane waves:  109903
 k-point   2 :   0.2500 0.0000 0.0000  plane waves:  109904
 k-point   3 :   0.5000 0.0000 0.0000  plane waves:  109892
 k-point   4 :   0.0000 0.2500 0.0000  plane waves:  109809
 k-point   5 :   0.2500 0.2500 0.0000  plane waves:  109891
 k-point   6 :   0.2500-0.2500 0.0000  plane waves:  109891
 k-point   7 :   0.5000 0.2500 0.0000  plane waves:  109842
 k-point   8 :   0.0000 0.5000 0.0000  plane waves:  109804
 k-point   9 :   0.2500 0.5000 0.0000  plane waves:  109832
 k-point  10 :   0.5000 0.5000 0.0000  plane waves:  109900
 k-point  11 :   0.0000 0.0000 0.2500  plane waves:  109863
 k-point  12 :   0.2500 0.0000 0.2500  plane waves:  109860
 k-point  13 :   0.2500 0.0000-0.2500  plane waves:  109860
 k-point  14 :   0.5000 0.0000 0.2500  plane waves:  109856
 k-point  15 :   0.0000 0.2500 0.2500  plane waves:  109870
 k-point  16 :   0.0000 0.2500-0.2500  plane waves:  109870
 k-point  17 :   0.2500 0.2500 0.2500  plane waves:  109854
 k-point  18 :   0.2500-0.2500-0.2500  plane waves:  109854
 k-point  19 :  -0.2500 0.2500-0.2500  plane waves:  109854
 k-point  20 :  -0.2500-0.2500 0.2500  plane waves:  109854
 k-point  21 :   0.5000 0.2500 0.2500  plane waves:  109856
 k-point  22 :   0.5000 0.2500-0.2500  plane waves:  109856
 k-point  23 :   0.0000 0.5000 0.2500  plane waves:  109870
 k-point  24 :   0.2500 0.5000 0.2500  plane waves:  109866
 k-point  25 :   0.2500 0.5000-0.2500  plane waves:  109866
 k-point  26 :   0.5000 0.5000 0.2500  plane waves:  109900
 k-point  27 :   0.0000 0.0000 0.5000  plane waves:  109848
 k-point  28 :   0.2500 0.0000 0.5000  plane waves:  109800
 k-point  29 :   0.5000 0.0000 0.5000  plane waves:  109860
 k-point  30 :   0.0000 0.2500 0.5000  plane waves:  109836
 k-point  31 :   0.2500 0.2500 0.5000  plane waves:  109842
 k-point  32 :   0.2500-0.2500 0.5000  plane waves:  109842
 k-point  33 :   0.5000 0.2500 0.5000  plane waves:  109888
 k-point  34 :   0.0000 0.5000 0.5000  plane waves:  109904
 k-point  35 :   0.2500 0.5000 0.5000  plane waves:  109892
 k-point  36 :   0.5000 0.5000 0.5000  plane waves:  109840

 maximum and minimum number of plane-waves per node :    109904   109800

 maximum number of plane-waves:    109904
 maximum index in each direction: 
   IXMAX=   28   IYMAX=   29   IZMAX=   31
   IXMIN=  -28   IYMIN=  -30   IZMIN=  -32


 serial   3D FFT for wavefunctions
 parallel 3D FFT for charge:
    minimum data exchange during FFTs selected (reduces bandwidth)


 total amount of memory used by VASP MPI-rank0  8117483. kBytes
=======================================================================

   base      :      30000. kBytes
   nonlr-proj:       3590. kBytes
   fftplans  :     235681. kBytes
   grid      :     626626. kBytes
   one-center:        124. kBytes
   wavefun   :    7221462. kBytes
 
     INWAV:  cpu time      0.0002: real time      0.0003
 Broyden mixing: mesh for mixing (old mesh)
   NGX = 55   NGY = 59   NGZ = 63
  (NGX  =224   NGY  =240   NGZ  =252)
  gives a total of 204435 points

 initial charge density was supplied:
 number of electron      63.9999989 magnetization      -0.0000000
 keeping initial charge density in first step


--------------------------------------------------------------------------------------------------------


 Maximum index for non-local projection operator          5107
 Maximum index for augmentation-charges          6872 (set IRDMAX)


--------------------------------------------------------------------------------------------------------


 First call to EWALD:  gamma=   0.111
 Maximum number of real-space cells 3x 3x 3
 Maximum number of reciprocal cells 3x 3x 3

    FEWALD:  cpu time      0.0007: real time      0.0007


--------------------------------------- Iteration      1(   1)  ---------------------------------------


    POTLOK:  cpu time      0.2688: real time      0.2704
    SETDIJ:  cpu time      0.0300: real time      0.0301
    TRIAL :  cpu time     10.9568: real time     10.9169
    CORREC:  cpu time      0.0014: real time      0.0014
    --------------------------------------------
      LOOP:  cpu time     12.9216: real time     12.8860

 eigenvalue-minimisations  :  7536
 total energy-change (2. order) : 0.5988628E+03  (-0.2187918E+04)
 number of electron      63.9999989 magnetization      -0.0000000
 augmentation part       63.9999989 magnetization      -0.0000000

 Free energy of the ion-electron system (eV)
  ---------------------------------------------------
  alpha Z        PSCENC =         9.40909239
  Ewald energy   TEWEN  =      3038.56891940
  -Hartree energ DENC   =    -11548.99449545
  -exchange      EXHF   =         0.00000000
  -V(xc)+E(xc)   XCENC  =       247.14076866
  PAW double counting   =      9089.14024238    -8956.41377344
  entropy T*S    EENTRO =        -0.01260860
  eigenvalues    EBANDS =      -992.92369390
  atomic energy  EATOM  =      9712.94829911
  ---------------------------------------------------
  free energy    TOTEN  =       598.86275056 eV

  energy without entropy =      598.87535916  energy(sigma->0) =      598.86905486


--------------------------------------------------------------------------------------------------------




--------------------------------------- Iteration      1(   2)  ---------------------------------------


    TRIAL :  cpu time     10.1755: real time     10.1360
    CORREC:  cpu time      0.0015: real time      0.0015
    --------------------------------------------
      LOOP:  cpu time     10.1772: real time     10.1381

 eigenvalue-minimisations  :  6954
 total energy-change (2. order) :-0.3758065E+03  (-0.3715898E+03)
 number of electron      63.9999989 magnetization      -0.0000000
 augmentation part       63.9999989 magnetization      -0.0000000

 Free energy of the ion-electron system (eV)
  ---------------------------------------------------
  alpha Z        PSCENC =         9.40909239
  Ewald energy   TEWEN  =      3038.56891940
  -Hartree energ DENC   =    -11548.99449545
  -exchange      EXHF   =         0.00000000
  -V(xc)+E(xc)   XCENC  =       247.14076866
  PAW double counting   =      9089.14024238    -8956.41377344
  entropy T*S    EENTRO =        -0.02100795
  eigenvalues    EBANDS =     -1368.72183633
  atomic energy  EATOM  =      9712.94829911
  ---------------------------------------------------
  free energy    TOTEN  =       223.05620877 eV

  energy without entropy =      223.07721672  energy(sigma->0) =      223.06671275


--------------------------------------------------------------------------------------------------------




--------------------------------------- Iteration      1(   3)  ---------------------------------------


    TRIAL :  cpu time     13.1227: real time     13.0734
    CORREC:  cpu time      0.0013: real time      0.0013
    --------------------------------------------
      LOOP:  cpu time     13.1242: real time     13.0752

 eigenvalue-minimisations  :  9544
 total energy-change (2. order) :-0.1464983E+03  (-0.1409663E+03)
 number of electron      63.9999989 magnetization      -0.0000000
 augmentation part       63.9999989 magnetization      -0.0000000

 Free energy of the ion-electron system (eV)
  ---------------------------------------------------
  alpha Z        PSCENC =         9.40909239
  Ewald energy   TEWEN  =      3038.56891940
  -Hartree energ DENC   =    -11548.99449545
  -exchange      EXHF   =         0.00000000
  -V(xc)+E(xc)   XCENC  =       247.14076866
  PAW double counting   =      9089.14024238    -8956.41377344
  entropy T*S    EENTRO =        -0.00512693
  eigenvalues    EBANDS =     -1515.23606639
  atomic energy  EATOM  =      9712.94829911
  ---------------------------------------------------
  free energy    TOTEN  =        76.55785973 eV

  energy without entropy =       76.56298666  energy(sigma->0) =       76.56042319


--------------------------------------------------------------------------------------------------------




--------------------------------------- Iteration      1(   4)  ---------------------------------------


    TRIAL :  cpu time     10.7072: real time     10.6646
    CORREC:  cpu time      0.0013: real time      0.0013
    --------------------------------------------
      LOOP:  cpu time     10.7087: real time     10.6664

 eigenvalue-minimisations  :  7400
 total energy-change (2. order) :-0.6425744E+02  (-0.5901329E+02)
 number of electron      63.9999989 magnetization      -0.0000000
 augmentation part       63.9999989 magnetization      -0.0000000

 Free energy of the ion-electron system (eV)
  ---------------------------------------------------
  alpha Z        PSCENC =         9.40909239
  Ewald energy   TEWEN  =      3038.56891940
  -Hartree energ DENC   =    -11548.99449545
  -exchange      EXHF   =         0.00000000
  -V(xc)+E(xc)   XCENC  =       247.14076866
  PAW double counting   =      9089.14024238    -8956.41377344
  entropy T*S    EENTRO =        -0.02295634
  eigenvalues    EBANDS =     -1579.47568124
  atomic energy  EATOM  =      9712.94829911
  ---------------------------------------------------
  free energy    TOTEN  =        12.30041547 eV

  energy without entropy =       12.32337182  energy(sigma->0) =       12.31189364


--------------------------------------------------------------------------------------------------------




--------------------------------------- Iteration      1(   5)  ---------------------------------------


    TRIAL :  cpu time     11.8941: real time     11.8481
    CORREC:  cpu time      0.0011: real time      0.0011
    CHARGE:  cpu time      1.1597: real time      1.1619
    --------------------------------------------
      LOOP:  cpu time     13.0551: real time     13.0115

 eigenvalue-minimisations  :  8466
 total energy-change (2. order) :-0.2113679E+02  (-0.1689717E+02)
 number of electron      63.9999990 magnetization      -0.0463524
 augmentation part       15.6154186 magnetization       0.0045841

 Free energy of the ion-electron system (eV)
  ---------------------------------------------------
  alpha Z        PSCENC =         9.40909239
  Ewald energy   TEWEN  =      3038.56891940
  -Hartree energ DENC   =    -11548.99449545
  -exchange      EXHF   =         0.00000000
  -V(xc)+E(xc)   XCENC  =       247.14076866
  PAW double counting   =      9089.14024238    -8956.41377344
  entropy T*S    EENTRO =        -0.00250245
  eigenvalues    EBANDS =     -1600.63292767
  atomic energy  EATOM  =      9712.94829911
  ---------------------------------------------------
  free energy    TOTEN  =        -8.83637706 eV

  energy without entropy =       -8.83387462  energy(sigma->0) =       -8.83512584


--------------------------------------------------------------------------------------------------------




--------------------------------------- Iteration      1(   6)  ---------------------------------------


    POTLOK:  cpu time      0.2500: real time      0.2498
    SETDIJ:  cpu time      0.0286: real time      0.0287
    TRIAL :  cpu time      8.6729: real time      8.5816
    CORREC:  cpu time      4.5905: real time      4.5945
    CHARGE:  cpu time      1.1322: real time      1.1343
    --------------------------------------------
      LOOP:  cpu time     14.6746: real time     14.5895

 eigenvalue-minimisations  :     0
 total energy-change (2. order) : 0.7360918E+01  (-0.6606964E+01)
 number of electron      63.9999989 magnetization      -0.0399389
 augmentation part       16.2915522 magnetization      -0.0007664

 Free energy of the ion-electron system (eV)
  ---------------------------------------------------
  alpha Z        PSCENC =         9.40909239
  Ewald energy   TEWEN  =      3038.56891940
  -Hartree energ DENC   =    -11054.19413590
  -exchange      EXHF   =         0.00000000
  -V(xc)+E(xc)   XCENC  =       236.13494686
  PAW double counting   =      8720.40530980    -8609.37677551
  entropy T*S    EENTRO =        -0.00337877
  eigenvalues    EBANDS =     -2055.36861240
  atomic energy  EATOM  =      9712.94829911
  ---------------------------------------------------
  free energy    TOTEN  =        -1.47545871 eV

  energy without entropy =       -1.47207994  energy(sigma->0) =       -1.47376932


--------------------------------------------------------------------------------------------------------




--------------------------------------- Iteration      1(   7)  ---------------------------------------


    POTLOK:  cpu time      0.2486: real time      0.2483
    SETDIJ:  cpu time      0.0284: real time      0.0285
    TRIAL :  cpu time      8.6614: real time      8.5707
    CORREC:  cpu time      4.6010: real time      4.6052
    CHARGE:  cpu time      1.1293: real time      1.1316
    --------------------------------------------
      LOOP:  cpu time     14.6692: real time     14.5848

 eigenvalue-minimisations  :     0
 total energy-change (2. order) :-0.6269639E+01  (-0.1186458E+01)
 number of electron      63.9999989 magnetization      -0.0306834
 augmentation part       16.2570832 magnetization      -0.0041407

 Free energy of the ion-electron system (eV)
  ---------------------------------------------------
  alpha Z        PSCENC =         9.40909239
  Ewald energy   TEWEN  =      3038.56891940
  -Hartree energ DENC   =    -11399.11508847
  -exchange      EXHF   =         0.00000000
  -V(xc)+E(xc)   XCENC  =       243.39880659
  PAW double counting   =      8627.46047711    -8508.90664947
  entropy T*S    EENTRO =        -0.00442036
  eigenvalues    EBANDS =     -1731.50557583
  atomic energy  EATOM  =      9712.94829911
  ---------------------------------------------------
  free energy    TOTEN  =        -7.74509795 eV

  energy without entropy =       -7.74067759  energy(sigma->0) =       -7.74288777


--------------------------------------------------------------------------------------------------------




--------------------------------------- Iteration      1(   8)  ---------------------------------------


    POTLOK:  cpu time      0.2483: real time      0.2485
    SETDIJ:  cpu time      0.0288: real time      0.0288
    TRIAL :  cpu time      8.6662: real time      8.5755
    CORREC:  cpu time      4.5953: real time      4.5998
    CHARGE:  cpu time      1.1340: real time      1.1362
    --------------------------------------------
      LOOP:  cpu time     14.6730: real time     14.5894

 eigenvalue-minimisations  :     0
 total energy-change (2. order) :-0.1177207E+01  (-0.8378134E+00)
 number of electron      63.9999989 magnetization      -0.0627598
 augmentation part       16.2157070 magnetization      -0.0185571

 Free energy of the ion-electron system (eV)
  ---------------------------------------------------
  alpha Z        PSCENC =         9.40909239
  Ewald energy   TEWEN  =      3038.56891940
  -Hartree energ DENC   =    -11438.61947070
  -exchange      EXHF   =         0.00000000
  -V(xc)+E(xc)   XCENC  =       244.19631349
  PAW double counting   =      8620.04787705    -8500.21680464
  entropy T*S    EENTRO =        -0.01045293
  eigenvalues    EBANDS =     -1695.25211112
  atomic energy  EATOM  =      9712.94829911
  ---------------------------------------------------
  free energy    TOTEN  =        -8.92230537 eV

  energy without entropy =       -8.91185245  energy(sigma->0) =       -8.91707891


--------------------------------------------------------------------------------------------------------




--------------------------------------- Iteration      1(   9)  ---------------------------------------


    POTLOK:  cpu time      0.2486: real time      0.2484
    SETDIJ:  cpu time      0.0287: real time      0.0288
    TRIAL :  cpu time      8.6671: real time      8.5760
    CORREC:  cpu time      4.5913: real time      4.5954
    CHARGE:  cpu time      1.1331: real time      1.1356
    --------------------------------------------
      LOOP:  cpu time     14.6692: real time     14.5848

 eigenvalue-minimisations  :     0
 total energy-change (2. order) :-0.8398213E+00  (-0.3794518E+00)
 number of electron      63.9999989 magnetization      -0.0826224
 augmentation part       16.2504771 magnetization      -0.0299184

 Free energy of the ion-electron system (eV)
  ---------------------------------------------------
  alpha Z        PSCENC =         9.40909239
  Ewald energy   TEWEN  =      3038.56891940
  -Hartree energ DENC   =    -11441.83321170
  -exchange      EXHF   =         0.00000000
  -V(xc)+E(xc)   XCENC  =       244.30086805
  PAW double counting   =      8662.82733101    -8541.42259182
  entropy T*S    EENTRO =        -0.01173421
  eigenvalues    EBANDS =     -1694.55038023
  atomic energy  EATOM  =      9712.94829911
  ---------------------------------------------------
  free energy    TOTEN  =        -9.76212672 eV

  energy without entropy =       -9.75039251  energy(sigma->0) =       -9.75625962


--------------------------------------------------------------------------------------------------------




--------------------------------------- Iteration      1(  10)  ---------------------------------------


    POTLOK:  cpu time      0.2484: real time      0.2481
    SETDIJ:  cpu time      0.0285: real time      0.0286
    TRIAL :  cpu time      8.6615: real time      8.5707
    CORREC:  cpu time      4.6027: real time      4.6075
    CHARGE:  cpu time      1.1373: real time      1.1395
    --------------------------------------------
      LOOP:  cpu time     14.6788: real time     14.5950

 eigenvalue-minimisations  :     0
 total energy-change (2. order) :-0.3809739E+00  (-0.3147393E+00)
 number of electron      63.9999989 magnetization      -0.0939520
 augmentation part       16.3003015 magnetization      -0.0402260

 Free energy of the ion-electron system (eV)
  ---------------------------------------------------
  alpha Z        PSCENC =         9.40909239
  Ewald energy   TEWEN  =      3038.56891940
  -Hartree energ DENC   =    -11436.45199676
  -exchange      EXHF   =         0.00000000
  -V(xc)+E(xc)   XCENC  =       244.27988836
  PAW double counting   =      8694.77236609    -8572.31385712
  entropy T*S    EENTRO =        -0.01154972
  eigenvalues    EBANDS =     -1701.34407786
  atomic energy  EATOM  =      9712.94829911
  ---------------------------------------------------
  free energy    TOTEN  =       -10.14310060 eV

  energy without entropy =      -10.13155088  energy(sigma->0) =      -10.13732574


--------------------------------------------------------------------------------------------------------




--------------------------------------- Iteration      1(  11)  ---------------------------------------


    POTLOK:  cpu time      0.2489: real time      0.2487
    SETDIJ:  cpu time      0.0286: real time      0.0287
    TRIAL :  cpu time      8.6604: real time      8.5744
    CORREC:  cpu time      4.6034: real time      4.6079
    CHARGE:  cpu time      1.1343: real time      1.1365
    --------------------------------------------
      LOOP:  cpu time     14.6761: real time     14.5969

 eigenvalue-minimisations  :     0
 total energy-change (2. order) :-0.3045152E+00  (-0.3072599E+00)
 number of electron      63.9999988 magnetization      -0.0994340
 augmentation part       16.3274764 magnetization      -0.0413389

 Free energy of the ion-electron system (eV)
  ---------------------------------------------------
  alpha Z        PSCENC =         9.40909239
  Ewald energy   TEWEN  =      3038.56891940
  -Hartree energ DENC   =    -11439.41763536
  -exchange      EXHF   =         0.00000000
  -V(xc)+E(xc)   XCENC  =       244.39987187
  PAW double counting   =      8720.45272440    -8596.98385537
  entropy T*S    EENTRO =        -0.01140346
  eigenvalues    EBANDS =     -1699.81348249
  atomic energy  EATOM  =      9712.94829911
  ---------------------------------------------------
  free energy    TOTEN  =       -10.44761577 eV

  energy without entropy =      -10.43621231  energy(sigma->0) =      -10.44191404


--------------------------------------------------------------------------------------------------------




--------------------------------------- Iteration      1(  12)  ---------------------------------------


    POTLOK:  cpu time      0.2485: real time      0.2483
    SETDIJ:  cpu time      0.0285: real time      0.0286
    TRIAL :  cpu time      8.6607: real time      8.5692
    CORREC:  cpu time      4.5984: real time      4.6023
    CHARGE:  cpu time      1.1331: real time      1.1353
    --------------------------------------------
      LOOP:  cpu time     14.6701: real time     14.5848

 eigenvalue-minimisations  :     0
 total energy-change (2. order) :-0.2981969E+00  (-0.2693769E+00)
 number of electron      63.9999988 magnetization      -0.0599732
 augmentation part       16.3111949 magnetization      -0.0315213

 Free energy of the ion-electron system (eV)
  ---------------------------------------------------
  alpha Z        PSCENC =         9.40909239
  Ewald energy   TEWEN  =      3038.56891940
  -Hartree energ DENC   =    -11450.58987665
  -exchange      EXHF   =         0.00000000
  -V(xc)+E(xc)   XCENC  =       244.63844285
  PAW double counting   =      8756.94685912    -8632.59594340
  entropy T*S    EENTRO =        -0.00927655
  eigenvalues    EBANDS =     -1690.06020199
  atomic energy  EATOM  =      9712.94829911
  ---------------------------------------------------
  free energy    TOTEN  =       -10.74581265 eV

  energy without entropy =      -10.73653609  energy(sigma->0) =      -10.74117437


--------------------------------------------------------------------------------------------------------




--------------------------------------- Iteration      1(  13)  ---------------------------------------


    POTLOK:  cpu time      0.2493: real time      0.2490
    SETDIJ:  cpu time      0.0288: real time      0.0288
    TRIAL :  cpu time      8.6569: real time      8.5628
    CORREC:  cpu time      4.5823: real time      4.5862
    CHARGE:  cpu time      1.1110: real time      1.1129
    --------------------------------------------
      LOOP:  cpu time     14.6286: real time     14.5404

 eigenvalue-minimisations  :     0
 total energy-change (2. order) :-0.2590041E+00  (-0.2360640E+00)
 number of electron      63.9999988 magnetization      -0.0618432
 augmentation part       16.3054210 magnetization      -0.0233249

 Free energy of the ion-electron system (eV)
  ---------------------------------------------------
  alpha Z        PSCENC =         9.40909239
  Ewald energy   TEWEN  =      3038.56891940
  -Hartree energ DENC   =    -11460.53847230
  -exchange      EXHF   =         0.00000000
  -V(xc)+E(xc)   XCENC  =       244.82293827
  PAW double counting   =      8802.78668544    -8677.87988769
  entropy T*S    EENTRO =        -0.00786294
  eigenvalues    EBANDS =     -1681.11311485
  atomic energy  EATOM  =      9712.94829911
  ---------------------------------------------------
  free energy    TOTEN  =       -11.00481677 eV

  energy without entropy =      -10.99695383  energy(sigma->0) =      -11.00088530


--------------------------------------------------------------------------------------------------------




--------------------------------------- Iteration      1(  14)  ---------------------------------------


    POTLOK:  cpu time      0.2490: real time      0.2487
    SETDIJ:  cpu time      0.0286: real time      0.0287
    TRIAL :  cpu time      8.6563: real time      8.5595
    CORREC:  cpu time      4.5569: real time      4.5599
    CHARGE:  cpu time      1.1194: real time      1.1213
    --------------------------------------------
      LOOP:  cpu time     14.6107: real time     14.5189

 eigenvalue-minimisations  :     0
 total energy-change (2. order) :-0.2293150E+00  (-0.1815953E+00)
 number of electron      63.9999988 magnetization      -0.0922603
 augmentation part       16.3301553 magnetization      -0.0191676

 Free energy of the ion-electron system (eV)
  ---------------------------------------------------
  alpha Z        PSCENC =         9.40909239
  Ewald energy   TEWEN  =      3038.56891940
  -Hartree energ DENC   =    -11470.19531633
  -exchange      EXHF   =         0.00000000
  -V(xc)+E(xc)   XCENC  =       245.03740303
  PAW double counting   =      8849.81150102    -8724.18334085
  entropy T*S    EENTRO =        -0.00742741
  eigenvalues    EBANDS =     -1672.62282657
  atomic energy  EATOM  =      9712.94829911
  ---------------------------------------------------
  free energy    TOTEN  =       -11.23413174 eV

  energy without entropy =      -11.22670433  energy(sigma->0) =      -11.23041804


--------------------------------------------------------------------------------------------------------




--------------------------------------- Iteration      1(  15)  ---------------------------------------


    POTLOK:  cpu time      0.2484: real time      0.2481
    SETDIJ:  cpu time      0.0285: real time      0.0285
    TRIAL :  cpu time      8.6518: real time      8.5563
    CORREC:  cpu time      4.5857: real time      4.5888
    CHARGE:  cpu time      1.1236: real time      1.1255
    --------------------------------------------
      LOOP:  cpu time     14.6382: real time     14.5479

 eigenvalue-minimisations  :     0
 total energy-change (2. order) :-0.1790221E+00  (-0.1400191E+00)
 number of electron      63.9999988 magnetization      -0.1459787
 augmentation part       16.3588764 magnetization      -0.0183719

 Free energy of the ion-electron system (eV)
  ---------------------------------------------------
  alpha Z        PSCENC =         9.40909239
  Ewald energy   TEWEN  =      3038.56891940
  -Hartree energ DENC   =    -11476.63079942
  -exchange      EXHF   =         0.00000000
  -V(xc)+E(xc)   XCENC  =       245.22589143
  PAW double counting   =      8875.49602095    -8749.06955949
  entropy T*S    EENTRO =        -0.00758983
  eigenvalues    EBANDS =     -1667.35359081
  atomic energy  EATOM  =      9712.94829911
  ---------------------------------------------------
  free energy    TOTEN  =       -11.41315385 eV

  energy without entropy =      -11.40556402  energy(sigma->0) =      -11.40935894


--------------------------------------------------------------------------------------------------------




--------------------------------------- Iteration      1(  16)  ---------------------------------------


    POTLOK:  cpu time      0.2483: real time      0.2480
    SETDIJ:  cpu time      0.0285: real time      0.0286
    TRIAL :  cpu time      8.6528: real time      8.5565
    CORREC:  cpu time      4.5890: real time      4.5925
    CHARGE:  cpu time      1.1306: real time      1.1326
    --------------------------------------------
      LOOP:  cpu time     14.6495: real time     14.5589

 eigenvalue-minimisations  :     0
 total energy-change (2. order) :-0.1370068E+00  (-0.1301194E+00)
 number of electron      63.9999988 magnetization      -0.3245052
 augmentation part       16.3667183 magnetization      -0.0285089

 Free energy of the ion-electron system (eV)
  ---------------------------------------------------
  alpha Z        PSCENC =         9.40909239
  Ewald energy   TEWEN  =      3038.56891940
  -Hartree energ DENC   =    -11479.84454944
  -exchange      EXHF   =         0.00000000
  -V(xc)+E(xc)   XCENC  =       245.34293120
  PAW double counting   =      8876.43234469    -8749.35451151
  entropy T*S    EENTRO =        -0.01550623
  eigenvalues    EBANDS =     -1665.04509667
  atomic energy  EATOM  =      9712.94829911
  ---------------------------------------------------
  free energy    TOTEN  =       -11.55016066 eV

  energy without entropy =      -11.53465442  energy(sigma->0) =      -11.54240754


--------------------------------------------------------------------------------------------------------




--------------------------------------- Iteration      1(  17)  ---------------------------------------


    POTLOK:  cpu time      0.2487: real time      0.2485
    SETDIJ:  cpu time      0.0287: real time      0.0287
    TRIAL :  cpu time      8.6571: real time      8.5648
    CORREC:  cpu time      4.5907: real time      4.5936
    CHARGE:  cpu time      1.1342: real time      1.1361
    --------------------------------------------
      LOOP:  cpu time     14.6596: real time     14.5723

 eigenvalue-minimisations  :     0
 total energy-change (2. order) :-0.1276404E+00  (-0.1190450E+00)
 number of electron      63.9999988 magnetization      -0.6550725
 augmentation part       16.3647725 magnetization      -0.0544728

 Free energy of the ion-electron system (eV)
  ---------------------------------------------------
  alpha Z        PSCENC =         9.40909239
  Ewald energy   TEWEN  =      3038.56891940
  -Hartree energ DENC   =    -11480.89347292
  -exchange      EXHF   =         0.00000000
  -V(xc)+E(xc)   XCENC  =       245.38584681
  PAW double counting   =      8859.90917211    -8732.50846046
  entropy T*S    EENTRO =        -0.01940084
  eigenvalues    EBANDS =     -1664.48169122
  atomic energy  EATOM  =      9712.94829911
  ---------------------------------------------------
  free energy    TOTEN  =       -11.67780101 eV

  energy without entropy =      -11.65840017  energy(sigma->0) =      -11.66810059


--------------------------------------------------------------------------------------------------------




--------------------------------------- Iteration      1(  18)  ---------------------------------------


    POTLOK:  cpu time      0.2486: real time      0.2484
    SETDIJ:  cpu time      0.0284: real time      0.0285
    TRIAL :  cpu time      8.6488: real time      8.5639
    CORREC:  cpu time      4.5960: real time      4.5990
    CHARGE:  cpu time      1.1369: real time      1.1388
    --------------------------------------------
      LOOP:  cpu time     14.6590: real time     14.5791

 eigenvalue-minimisations  :     0
 total energy-change (2. order) :-0.1111548E+00  (-0.7017349E-01)
 number of electron      63.9999988 magnetization      -0.6356940
 augmentation part       16.3723803 magnetization      -0.0537267

 Free energy of the ion-electron system (eV)
  ---------------------------------------------------
  alpha Z        PSCENC =         9.40909239
  Ewald energy   TEWEN  =      3038.56891940
  -Hartree energ DENC   =    -11484.67019918
  -exchange      EXHF   =         0.00000000
  -V(xc)+E(xc)   XCENC  =       245.48530399
  PAW double counting   =      8843.21279224    -8715.63068665
  entropy T*S    EENTRO =        -0.01392673
  eigenvalues    EBANDS =     -1661.09307630
  atomic energy  EATOM  =      9712.94829911
  ---------------------------------------------------
  free energy    TOTEN  =       -11.78895585 eV

  energy without entropy =      -11.77502913  energy(sigma->0) =      -11.78199249


--------------------------------------------------------------------------------------------------------




--------------------------------------- Iteration      1(  19)  ---------------------------------------


    POTLOK:  cpu time      0.2486: real time      0.2484
    SETDIJ:  cpu time      0.0287: real time      0.0287
    TRIAL :  cpu time      8.6499: real time      8.5560
    CORREC:  cpu time      4.6062: real time      4.6097
    CHARGE:  cpu time      1.1411: real time      1.1431
    --------------------------------------------
      LOOP:  cpu time     14.6748: real time     14.5865

 eigenvalue-minimisations  :     0
 total energy-change (2. order) :-0.7040946E-01  (-0.7140171E-01)
 number of electron      63.9999988 magnetization      -0.5900107
 augmentation part       16.3727313 magnetization      -0.0546068

 Free energy of the ion-electron system (eV)
  ---------------------------------------------------
  alpha Z        PSCENC =         9.40909239
  Ewald energy   TEWEN  =      3038.56891940
  -Hartree energ DENC   =    -11491.70687289
  -exchange      EXHF   =         0.00000000
  -V(xc)+E(xc)   XCENC  =       245.64646948
  PAW double counting   =      8842.84997389    -8714.91859282
  entropy T*S    EENTRO =        -0.01137298
  eigenvalues    EBANDS =     -1654.64272713
  atomic energy  EATOM  =      9712.94829911
  ---------------------------------------------------
  free energy    TOTEN  =       -11.85936531 eV

  energy without entropy =      -11.84799234  energy(sigma->0) =      -11.85367883


--------------------------------------------------------------------------------------------------------




--------------------------------------- Iteration      1(  20)  ---------------------------------------


    POTLOK:  cpu time      0.2489: real time      0.2486
    SETDIJ:  cpu time      0.0289: real time      0.0290
    TRIAL :  cpu time      8.6540: real time      8.5583
    CORREC:  cpu time      4.6009: real time      4.6040
    CHARGE:  cpu time      1.1410: real time      1.1430
    --------------------------------------------
      LOOP:  cpu time     14.6740: real time     14.5834

 eigenvalue-minimisations  :     0
 total energy-change (2. order) :-0.7134088E-01  (-0.5896019E-01)
 number of electron      63.9999988 magnetization      -0.5974392
 augmentation part       16.3716840 magnetization      -0.0590795

 Free energy of the ion-electron system (eV)
  ---------------------------------------------------
  alpha Z        PSCENC =         9.40909239
  Ewald energy   TEWEN  =      3038.56891940
  -Hartree energ DENC   =    -11493.71835040
  -exchange      EXHF   =         0.00000000
  -V(xc)+E(xc)   XCENC  =       245.69988416
  PAW double counting   =      8853.30528168    -8725.19610773
  entropy T*S    EENTRO =        -0.01202581
  eigenvalues    EBANDS =     -1652.93635183
  atomic energy  EATOM  =      9712.94829911
  ---------------------------------------------------
  free energy    TOTEN  =       -11.93070620 eV

  energy without entropy =      -11.91868039  energy(sigma->0) =      -11.92469329


--------------------------------------------------------------------------------------------------------




--------------------------------------- Iteration      1(  21)  ---------------------------------------


    POTLOK:  cpu time      0.2484: real time      0.2482
    SETDIJ:  cpu time      0.0289: real time      0.0289
    TRIAL :  cpu time      8.6528: real time      8.5636
    CORREC:  cpu time      4.5991: real time      4.6024
    CHARGE:  cpu time      1.1396: real time      1.1415
    --------------------------------------------
      LOOP:  cpu time     14.6696: real time     14.5858

 eigenvalue-minimisations  :     0
 total energy-change (2. order) :-0.5863725E-01  (-0.4233037E-01)
 number of electron      63.9999988 magnetization      -0.6501939
 augmentation part       16.3720335 magnetization      -0.0691573

 Free energy of the ion-electron system (eV)
  ---------------------------------------------------
  alpha Z        PSCENC =         9.40909239
  Ewald energy   TEWEN  =      3038.56891940
  -Hartree energ DENC   =    -11493.41876851
  -exchange      EXHF   =         0.00000000
  -V(xc)+E(xc)   XCENC  =       245.69971355
  PAW double counting   =      8874.82914204    -8746.58411016
  entropy T*S    EENTRO =        -0.01239957
  eigenvalues    EBANDS =     -1653.42960546
  atomic energy  EATOM  =      9712.94829911
  ---------------------------------------------------
  free energy    TOTEN  =       -11.98934344 eV

  energy without entropy =      -11.97694388  energy(sigma->0) =      -11.98314366


--------------------------------------------------------------------------------------------------------




--------------------------------------- Iteration      1(  22)  ---------------------------------------


    POTLOK:  cpu time      0.2491: real time      0.2490
    SETDIJ:  cpu time      0.0287: real time      0.0287
    TRIAL :  cpu time      8.6471: real time      8.5524
    CORREC:  cpu time      4.6075: real time      4.6109
    CHARGE:  cpu time      1.1453: real time      1.1472
    --------------------------------------------
      LOOP:  cpu time     14.6780: real time     14.5888

 eigenvalue-minimisations  :     0
 total energy-change (2. order) :-0.4243076E-01  (-0.6161901E-01)
 number of electron      63.9999988 magnetization      -0.9275849
 augmentation part       16.3761012 magnetization      -0.1029725

 Free energy of the ion-electron system (eV)
  ---------------------------------------------------
  alpha Z        PSCENC =         9.40909239
  Ewald energy   TEWEN  =      3038.56891940
  -Hartree energ DENC   =    -11493.62214082
  -exchange      EXHF   =         0.00000000
  -V(xc)+E(xc)   XCENC  =       245.70217748
  PAW double counting   =      8897.70062124    -8769.35590905
  entropy T*S    EENTRO =        -0.01103653
  eigenvalues    EBANDS =     -1653.37043438
  atomic energy  EATOM  =      9712.94829911
  ---------------------------------------------------
  free energy    TOTEN  =       -12.03177420 eV

  energy without entropy =      -12.02073767  energy(sigma->0) =      -12.02625594


--------------------------------------------------------------------------------------------------------




--------------------------------------- Iteration      1(  23)  ---------------------------------------


    POTLOK:  cpu time      0.2489: real time      0.2486
    SETDIJ:  cpu time      0.0285: real time      0.0286
    TRIAL :  cpu time      8.6489: real time      8.5538
    CORREC:  cpu time      4.6073: real time      4.6104
    CHARGE:  cpu time      1.1411: real time      1.1430
    --------------------------------------------
      LOOP:  cpu time     14.6750: real time     14.5850

 eigenvalue-minimisations  :     0
 total energy-change (2. order) :-0.5332101E-01  (-0.1824624E-01)
 number of electron      63.9999988 magnetization      -0.9764978
 augmentation part       16.3772611 magnetization      -0.1087818

 Free energy of the ion-electron system (eV)
  ---------------------------------------------------
  alpha Z        PSCENC =         9.40909239
  Ewald energy   TEWEN  =      3038.56891940
  -Hartree energ DENC   =    -11495.78305431
  -exchange      EXHF   =         0.00000000
  -V(xc)+E(xc)   XCENC  =       245.75475447
  PAW double counting   =      8926.79517005    -8798.32174561
  entropy T*S    EENTRO =        -0.00978753
  eigenvalues    EBANDS =     -1651.44549418
  atomic energy  EATOM  =      9712.94829911
  ---------------------------------------------------
  free energy    TOTEN  =       -12.08509521 eV

  energy without entropy =      -12.07530768  energy(sigma->0) =      -12.08020144


--------------------------------------------------------------------------------------------------------




--------------------------------------- Iteration      1(  24)  ---------------------------------------


    POTLOK:  cpu time      0.2487: real time      0.2485
    SETDIJ:  cpu time      0.0286: real time      0.0286
    TRIAL :  cpu time      8.6533: real time      8.5576
    CORREC:  cpu time      4.6037: real time      4.6069
    CHARGE:  cpu time      1.1484: real time      1.1504
    --------------------------------------------
      LOOP:  cpu time     14.6830: real time     14.5926

 eigenvalue-minimisations  :     0
 total energy-change (2. order) :-0.1798841E-01  (-0.3095484E-01)
 number of electron      63.9999988 magnetization      -1.0068890
 augmentation part       16.3794950 magnetization      -0.1118999

 Free energy of the ion-electron system (eV)
  ---------------------------------------------------
  alpha Z        PSCENC =         9.40909239
  Ewald energy   TEWEN  =      3038.56891940
  -Hartree energ DENC   =    -11496.20778280
  -exchange      EXHF   =         0.00000000
  -V(xc)+E(xc)   XCENC  =       245.76774474
  PAW double counting   =      8934.67192436    -8806.18963852
  entropy T*S    EENTRO =        -0.00892158
  eigenvalues    EBANDS =     -1651.06185477
  atomic energy  EATOM  =      9712.94829911
  ---------------------------------------------------
  free energy    TOTEN  =       -12.10308361 eV

  energy without entropy =      -12.09416203  energy(sigma->0) =      -12.09862282


--------------------------------------------------------------------------------------------------------




--------------------------------------- Iteration      1(  25)  ---------------------------------------


    POTLOK:  cpu time      0.2486: real time      0.2484
    SETDIJ:  cpu time      0.0292: real time      0.0293
    TRIAL :  cpu time      8.6685: real time      8.5711
    CORREC:  cpu time      4.5747: real time      4.5778
    CHARGE:  cpu time      1.1187: real time      1.1207
    --------------------------------------------
      LOOP:  cpu time     14.6400: real time     14.5478

 eigenvalue-minimisations  :     0
 total energy-change (2. order) :-0.3099751E-01  (-0.2707822E-01)
 number of electron      63.9999988 magnetization      -1.0631243
 augmentation part       16.3814770 magnetization      -0.1169775

 Free energy of the ion-electron system (eV)
  ---------------------------------------------------
  alpha Z        PSCENC =         9.40909239
  Ewald energy   TEWEN  =      3038.56891940
  -Hartree energ DENC   =    -11497.07918106
  -exchange      EXHF   =         0.00000000
  -V(xc)+E(xc)   XCENC  =       245.79477631
  PAW double counting   =      8935.91737799    -8807.43554264
  entropy T*S    EENTRO =        -0.00886766
  eigenvalues    EBANDS =     -1650.24890105
  atomic energy  EATOM  =      9712.94829911
  ---------------------------------------------------
  free energy    TOTEN  =       -12.13408113 eV

  energy without entropy =      -12.12521347  energy(sigma->0) =      -12.12964730


--------------------------------------------------------------------------------------------------------




--------------------------------------- Iteration      1(  26)  ---------------------------------------


    POTLOK:  cpu time      0.2491: real time      0.2489
    SETDIJ:  cpu time      0.0284: real time      0.0285
    TRIAL :  cpu time      8.6495: real time      8.5543
    CORREC:  cpu time      4.5738: real time      4.5768
    CHARGE:  cpu time      1.1109: real time      1.1145
    --------------------------------------------
      LOOP:  cpu time     14.6119: real time     14.5235

 eigenvalue-minimisations  :     0
 total energy-change (2. order) :-0.2756302E-01  (-0.1996833E-01)
 number of electron      63.9999988 magnetization      -1.1222873
 augmentation part       16.3837200 magnetization      -0.1215371

 Free energy of the ion-electron system (eV)
  ---------------------------------------------------
  alpha Z        PSCENC =         9.40909239
  Ewald energy   TEWEN  =      3038.56891940
  -Hartree energ DENC   =    -11497.72915199
  -exchange      EXHF   =         0.00000000
  -V(xc)+E(xc)   XCENC  =       245.82042656
  PAW double counting   =      8930.05658867    -8801.58165176
  entropy T*S    EENTRO =        -0.00939361
  eigenvalues    EBANDS =     -1649.64529886
  atomic energy  EATOM  =      9712.94829911
  ---------------------------------------------------
  free energy    TOTEN  =       -12.16164415 eV

  energy without entropy =      -12.15225054  energy(sigma->0) =      -12.15694734


--------------------------------------------------------------------------------------------------------




--------------------------------------- Iteration      1(  27)  ---------------------------------------


    POTLOK:  cpu time      0.2480: real time      0.2478
    SETDIJ:  cpu time      0.0285: real time      0.0286
    TRIAL :  cpu time      8.6486: real time      8.5535
    CORREC:  cpu time      4.5695: real time      4.5726
    CHARGE:  cpu time      1.1129: real time      1.1149
    --------------------------------------------
      LOOP:  cpu time     14.6080: real time     14.5180

 eigenvalue-minimisations  :     0
 total energy-change (2. order) :-0.2002167E-01  (-0.2109631E-01)
 number of electron      63.9999988 magnetization      -1.2067713
 augmentation part       16.3871512 magnetization      -0.1266999

 Free energy of the ion-electron system (eV)
  ---------------------------------------------------
  alpha Z        PSCENC =         9.40909239
  Ewald energy   TEWEN  =      3038.56891940
  -Hartree energ DENC   =    -11498.68138214
  -exchange      EXHF   =         0.00000000
  -V(xc)+E(xc)   XCENC  =       245.85158297
  PAW double counting   =      8922.07192969    -8793.56470186
  entropy T*S    EENTRO =        -0.01039704
  eigenvalues    EBANDS =     -1648.77601178
  atomic energy  EATOM  =      9712.94829911
  ---------------------------------------------------
  free energy    TOTEN  =       -12.18166582 eV

  energy without entropy =      -12.17126879  energy(sigma->0) =      -12.17646730


--------------------------------------------------------------------------------------------------------




--------------------------------------- Iteration      1(  28)  ---------------------------------------


    POTLOK:  cpu time      0.2483: real time      0.2480
    SETDIJ:  cpu time      0.0288: real time      0.0289
    TRIAL :  cpu time      8.6593: real time      8.5627
    CORREC:  cpu time      4.5867: real time      4.5898
    CHARGE:  cpu time      1.1291: real time      1.1310
    --------------------------------------------
      LOOP:  cpu time     14.6525: real time     14.5610

 eigenvalue-minimisations  :     0
 total energy-change (2. order) :-0.2138645E-01  (-0.2003153E-01)
 number of electron      63.9999988 magnetization      -1.3058753
 augmentation part       16.3895088 magnetization      -0.1329361

 Free energy of the ion-electron system (eV)
  ---------------------------------------------------
  alpha Z        PSCENC =         9.40909239
  Ewald energy   TEWEN  =      3038.56891940
  -Hartree energ DENC   =    -11500.46556319
  -exchange      EXHF   =         0.00000000
  -V(xc)+E(xc)   XCENC  =       245.90100391
  PAW double counting   =      8912.64805481    -8784.03670464
  entropy T*S    EENTRO =        -0.01013356
  eigenvalues    EBANDS =     -1647.16575703
  atomic energy  EATOM  =      9712.94829911
  ---------------------------------------------------
  free energy    TOTEN  =       -12.20305228 eV

  energy without entropy =      -12.19291871  energy(sigma->0) =      -12.19798549


--------------------------------------------------------------------------------------------------------




--------------------------------------- Iteration      1(  29)  ---------------------------------------


    POTLOK:  cpu time      0.2487: real time      0.2485
    SETDIJ:  cpu time      0.0287: real time      0.0288
    TRIAL :  cpu time      8.6529: real time      8.5568
    CORREC:  cpu time      4.5818: real time      4.5864
    CHARGE:  cpu time      1.1274: real time      1.1292
    --------------------------------------------
      LOOP:  cpu time     14.6398: real time     14.5503

 eigenvalue-minimisations  :     0
 total energy-change (2. order) :-0.2024022E-01  (-0.1989071E-01)
 number of electron      63.9999988 magnetization      -1.4592091
 augmentation part       16.3878692 magnetization      -0.1448958

 Free energy of the ion-electron system (eV)
  ---------------------------------------------------
  alpha Z        PSCENC =         9.40909239
  Ewald energy   TEWEN  =      3038.56891940
  -Hartree energ DENC   =    -11501.81347892
  -exchange      EXHF   =         0.00000000
  -V(xc)+E(xc)   XCENC  =       245.93873401
  PAW double counting   =      8904.70667459    -8775.97154521
  entropy T*S    EENTRO =        -0.00961276
  eigenvalues    EBANDS =     -1645.99985430
  atomic energy  EATOM  =      9712.94829911
  ---------------------------------------------------
  free energy    TOTEN  =       -12.22329250 eV

  energy without entropy =      -12.21367974  energy(sigma->0) =      -12.21848612


--------------------------------------------------------------------------------------------------------




--------------------------------------- Iteration      1(  30)  ---------------------------------------


    POTLOK:  cpu time      0.2489: real time      0.2486
    SETDIJ:  cpu time      0.0287: real time      0.0288
    TRIAL :  cpu time      8.6482: real time      8.5525
    CORREC:  cpu time      4.5868: real time      4.5902
    CHARGE:  cpu time      1.1205: real time      1.1224
    --------------------------------------------
      LOOP:  cpu time     14.6334: real time     14.5431

 eigenvalue-minimisations  :     0
 total energy-change (2. order) :-0.2056987E-01  (-0.1828937E-01)
 number of electron      63.9999988 magnetization      -1.6109684
 augmentation part       16.3843007 magnetization      -0.1564391

 Free energy of the ion-electron system (eV)
  ---------------------------------------------------
  alpha Z        PSCENC =         9.40909239
  Ewald energy   TEWEN  =      3038.56891940
  -Hartree energ DENC   =    -11501.19032001
  -exchange      EXHF   =         0.00000000
  -V(xc)+E(xc)   XCENC  =       245.93247582
  PAW double counting   =      8898.33698295    -8769.54594665
  entropy T*S    EENTRO =        -0.00877969
  eigenvalues    EBANDS =     -1646.69375262
  atomic energy  EATOM  =      9712.94829911
  ---------------------------------------------------
  free energy    TOTEN  =       -12.24386237 eV

  energy without entropy =      -12.23508268  energy(sigma->0) =      -12.23947253


--------------------------------------------------------------------------------------------------------




--------------------------------------- Iteration      1(  31)  ---------------------------------------


    POTLOK:  cpu time      0.2487: real time      0.2485
    SETDIJ:  cpu time      0.0288: real time      0.0288
    TRIAL :  cpu time      8.6545: real time      8.5584
    CORREC:  cpu time      4.5952: real time      4.5981
    CHARGE:  cpu time      1.1226: real time      1.1246
    --------------------------------------------
      LOOP:  cpu time     14.6501: real time     14.5590

 eigenvalue-minimisations  :     0
 total energy-change (2. order) :-0.1970436E-01  (-0.1844481E-01)
 number of electron      63.9999988 magnetization      -1.6913034
 augmentation part       16.3812309 magnetization      -0.1626606

 Free energy of the ion-electron system (eV)
  ---------------------------------------------------
  alpha Z        PSCENC =         9.40909239
  Ewald energy   TEWEN  =      3038.56891940
  -Hartree energ DENC   =    -11499.68352998
  -exchange      EXHF   =         0.00000000
  -V(xc)+E(xc)   XCENC  =       245.90669506
  PAW double counting   =      8893.82311355    -8765.03402539
  entropy T*S    EENTRO =        -0.00784158
  eigenvalues    EBANDS =     -1648.19335117
  atomic energy  EATOM  =      9712.94829911
  ---------------------------------------------------
  free energy    TOTEN  =       -12.26356673 eV

  energy without entropy =      -12.25572515  energy(sigma->0) =      -12.25964594


--------------------------------------------------------------------------------------------------------




--------------------------------------- Iteration      1(  32)  ---------------------------------------


    POTLOK:  cpu time      0.2488: real time      0.2486
    SETDIJ:  cpu time      0.0281: real time      0.0282
    TRIAL :  cpu time      8.6510: real time      8.5553
    CORREC:  cpu time      4.5710: real time      4.5741
    CHARGE:  cpu time      1.1115: real time      1.1135
    --------------------------------------------
      LOOP:  cpu time     14.6107: real time     14.5202

 eigenvalue-minimisations  :     0
 total energy-change (2. order) :-0.1591639E-01  (-0.1450206E-01)
 number of electron      63.9999988 magnetization      -1.7286564
 augmentation part       16.3798027 magnetization      -0.1668004

 Free energy of the ion-electron system (eV)
  ---------------------------------------------------
  alpha Z        PSCENC =         9.40909239
  Ewald energy   TEWEN  =      3038.56891940
  -Hartree energ DENC   =    -11498.52627569
  -exchange      EXHF   =         0.00000000
  -V(xc)+E(xc)   XCENC  =       245.88464417
  PAW double counting   =      8890.68828114    -8761.91009388
  entropy T*S    EENTRO =        -0.00660139
[...]
     27      -5.4755      1.00000
     28      -5.4665      1.00000
     29      -5.1343      1.00000
     30      -5.0905      1.00000
     31      -5.0864      1.00000
     32      -4.9846      1.00000
     33      -4.7639      0.99950
     34      -4.5203      0.00015
     35      -4.5007      0.00001
     36      -2.4515      0.00000
     37      -1.6139      0.00000
     38      -1.4345      0.00000

 k-point    34 :       0.0000    0.5000    0.5000
  band No.  band energies     occupation 
      1     -57.0308      1.00000
      2     -56.8924      1.00000
      3     -56.8777      1.00000
      4     -56.7918      1.00000
      5     -56.5200      1.00000
      6     -56.4264      1.00000
      7     -56.4056      1.00000
      8     -56.2906      1.00000
      9     -55.9597      1.00000
     10     -55.8631      1.00000
     11     -55.8459      1.00000
     12     -55.7892      1.00000
     13      -9.4752      1.00000
     14      -9.1596      1.00000
     15      -8.9162      1.00000
     16      -8.6231      1.00000
     17      -8.5744      1.00000
     18      -7.6237      1.00000
     19      -7.5744      1.00000
     20      -7.1319      1.00000
     21      -7.0850      1.00000
     22      -6.7971      1.00000
     23      -6.7498      1.00000
     24      -6.3419      1.00000
     25      -5.6006      1.00000
     26      -5.5798      1.00000
     27      -5.4755      1.00000
     28      -5.4665      1.00000
     29      -5.1343      1.00000
     30      -5.0906      1.00000
     31      -5.0864      1.00000
     32      -4.9846      1.00000
     33      -4.7639      0.99950
     34      -4.5203      0.00015
     35      -4.5006      0.00001
     36      -2.4518      0.00000
     37      -1.6206      0.00000
     38      -1.5060      0.00000

 k-point    35 :       0.2500    0.5000    0.5000
  band No.  band energies     occupation 
      1     -57.0308      1.00000
      2     -56.8924      1.00000
      3     -56.8777      1.00000
      4     -56.7918      1.00000
      5     -56.5200      1.00000
      6     -56.4264      1.00000
      7     -56.4056      1.00000
      8     -56.2906      1.00000
      9     -55.9597      1.00000
     10     -55.8631      1.00000
     11     -55.8459      1.00000
     12     -55.7892      1.00000
     13      -9.4752      1.00000
     14      -9.1596      1.00000
     15      -8.9162      1.00000
     16      -8.6231      1.00000
     17      -8.5744      1.00000
     18      -7.6237      1.00000
     19      -7.5744      1.00000
     20      -7.1319      1.00000
     21      -7.0850      1.00000
     22      -6.7971      1.00000
     23      -6.7498      1.00000
     24      -6.3419      1.00000
     25      -5.6006      1.00000
     26      -5.5798      1.00000
     27      -5.4755      1.00000
     28      -5.4665      1.00000
     29      -5.1343      1.00000
     30      -5.0906      1.00000
     31      -5.0864      1.00000
     32      -4.9846      1.00000
     33      -4.7639      0.99950
     34      -4.5203      0.00015
     35      -4.5007      0.00001
     36      -2.4517      0.00000
     37      -1.6044      0.00000
     38      -1.5053      0.00000

 k-point    36 :       0.5000    0.5000    0.5000
  band No.  band energies     occupation 
      1     -57.0308      1.00000
      2     -56.8924      1.00000
      3     -56.8777      1.00000
      4     -56.7918      1.00000
      5     -56.5200      1.00000
      6     -56.4264      1.00000
      7     -56.4056      1.00000
      8     -56.2906      1.00000
      9     -55.9597      1.00000
     10     -55.8631      1.00000
     11     -55.8459      1.00000
     12     -55.7891      1.00000
     13      -9.4752      1.00000
     14      -9.1596      1.00000
     15      -8.9162      1.00000
     16      -8.6231      1.00000
     17      -8.5743      1.00000
     18      -7.6237      1.00000
     19      -7.5744      1.00000
     20      -7.1319      1.00000
     21      -7.0850      1.00000
     22      -6.7971      1.00000
     23      -6.7498      1.00000
     24      -6.3419      1.00000
     25      -5.6006      1.00000
     26      -5.5798      1.00000
     27      -5.4755      1.00000
     28      -5.4665      1.00000
     29      -5.1343      1.00000
     30      -5.0905      1.00000
     31      -5.0864      1.00000
     32      -4.9846      1.00000
     33      -4.7639      0.99950
     34      -4.5203      0.00015
     35      -4.5007      0.00001
     36      -2.4517      0.00000
     37      -1.6156      0.00000
     38      -1.4793      0.00000


--------------------------------------------------------------------------------------------------------


 soft charge-density along one line, spin component            1
         0         1         2         3         4         5         6         7         8         9
 total charge-density along one line
 
 soft charge-density along one line, spin component            2
         0         1         2         3         4         5         6         7         8         9
 total charge-density along one line
 
 pseudopotential strength for first ion, spin component:            1
-36.736   0.000   0.027  15.985  -0.000  -0.022   0.042  -0.000
  0.000 -36.586  -0.000  -0.000  15.833   0.000   0.000   0.045
  0.027  -0.000 -36.736  -0.022   0.000  15.984   0.043   0.000
 15.985  -0.000  -0.022  14.210   0.000   0.009  -0.024   0.000
 -0.000  15.833   0.000   0.000  14.252  -0.000   0.000  -0.026
 -0.022   0.000  15.984   0.009  -0.000  14.210  -0.025   0.000
  0.042   0.000   0.043  -0.024   0.000  -0.025  -7.137  -0.000
 -0.000   0.045   0.000   0.000  -0.026   0.000  -0.000  -7.051
 -0.024  -0.000  -0.023   0.016   0.000   0.016  -0.017   0.000
  0.000   0.044  -0.000   0.000  -0.025   0.000   0.000   0.006
 -0.043  -0.000   0.042   0.029  -0.000  -0.028  -0.000  -0.000
  0.047   0.000   0.048  -0.027   0.000  -0.028  -7.782  -0.000
 -0.000   0.051   0.000   0.000  -0.029   0.000  -0.000  -7.685
 -0.026  -0.000  -0.026   0.018   0.000   0.018  -0.019   0.000
  0.000   0.050  -0.000   0.000  -0.028   0.000   0.000   0.006
 -0.048  -0.000   0.048   0.032  -0.000  -0.032  -0.000  -0.000
 -0.035   0.000  -0.034   0.005  -0.000   0.005  -0.010  -0.000
  0.073  -0.000   0.072  -0.008   0.000  -0.008   0.020   0.000
 pseudopotential strength for first ion, spin component:            2
-36.868   0.000   0.042  16.138  -0.000  -0.047   0.038   0.000
  0.000 -36.691  -0.000  -0.000  15.937   0.000  -0.000   0.042
  0.042  -0.000 -36.868  -0.047   0.000  16.137   0.039  -0.000
 16.138  -0.000  -0.047  14.187   0.000   0.018  -0.018  -0.000
 -0.000  15.937   0.000   0.000  14.230  -0.000   0.000  -0.020
 -0.047   0.000  16.137   0.018  -0.000  14.186  -0.018   0.000
  0.038  -0.000   0.039  -0.018   0.000  -0.018  -7.257   0.000
  0.000   0.042  -0.000  -0.000  -0.020   0.000   0.000  -7.198
 -0.015  -0.000  -0.015   0.007   0.000   0.006   0.007   0.000
 -0.000   0.041  -0.000   0.000  -0.020   0.000  -0.000   0.054
 -0.030  -0.000   0.029   0.013   0.000  -0.013   0.000  -0.000
  0.042  -0.000   0.043  -0.020   0.000  -0.021  -7.916   0.000
  0.000   0.047  -0.000  -0.000  -0.023   0.000   0.000  -7.850
 -0.017  -0.000  -0.017   0.007   0.000   0.007   0.008   0.000
 -0.000   0.046  -0.000   0.000  -0.022   0.000  -0.000   0.060
 -0.033  -0.000   0.032   0.015   0.000  -0.014   0.001  -0.000
 -0.019   0.000  -0.018   0.001  -0.000   0.001  -0.026  -0.000
  0.034  -0.000   0.033  -0.001   0.000  -0.001   0.056   0.000
 total augmentation occupancy for first ion, spin component:            1
  2.000  -0.000  -0.000  -0.007  -0.000   0.001   0.006   0.000   0.000   0.000   0.002  -0.006   0.000   0.006  -0.000   0.009
 -0.000   1.999   0.000  -0.000  -0.009  -0.000   0.000   0.007  -0.000   0.007  -0.000  -0.000  -0.006   0.000  -0.006  -0.000
 -0.000   0.000   2.000   0.001  -0.000  -0.008   0.006  -0.000   0.000  -0.000  -0.003  -0.006   0.000   0.006  -0.000  -0.008
 -0.007  -0.000   0.001   0.021  -0.000  -0.004   0.048  -0.000  -0.096  -0.000  -0.190  -0.051   0.000   0.072   0.000   0.151
 -0.000  -0.009  -0.000  -0.000   0.008   0.000  -0.000   0.045   0.000   0.045   0.000   0.000  -0.054   0.000  -0.053  -0.000
  0.001  -0.000  -0.008  -0.004   0.000   0.021   0.048   0.000  -0.096   0.000   0.189  -0.051  -0.000   0.071  -0.000  -0.151
  0.006   0.000   0.006   0.048  -0.000   0.048   3.642   0.001   0.039  -0.001  -0.001  -1.536  -0.001  -0.017   0.001   0.002
  0.000   0.007  -0.000  -0.000   0.045   0.000   0.001   2.630   0.001   0.046   0.003  -0.001  -0.761  -0.001   0.024  -0.002
  0.000  -0.000   0.000  -0.096   0.000  -0.096   0.039   0.001   3.122  -0.001   0.013   0.005  -0.001  -1.116   0.000  -0.010
  0.000   0.007  -0.000  -0.000   0.045   0.000  -0.001   0.046  -0.001   2.613   0.002   0.001   0.024   0.000  -0.749  -0.002
  0.002  -0.000  -0.003  -0.190   0.000   0.189  -0.001   0.003   0.013   0.002   5.738   0.001  -0.002  -0.010  -0.002  -3.176
 -0.006  -0.000  -0.006  -0.051   0.000  -0.051  -1.536  -0.001   0.005   0.001   0.001   1.269   0.001   0.024  -0.001   0.000
  0.000  -0.006   0.000   0.000  -0.054  -0.000  -0.001  -0.761  -0.001   0.024  -0.002   0.001   0.701   0.001   0.066   0.001
  0.006   0.000   0.006   0.072   0.000   0.071  -0.017  -0.001  -1.116   0.000  -0.010   0.024   0.001   1.023  -0.001   0.007
 -0.000  -0.006  -0.000   0.000  -0.053  -0.000   0.001   0.024   0.000  -0.749  -0.002  -0.001   0.066  -0.001   0.691   0.001
  0.009  -0.000  -0.008   0.151  -0.000  -0.151   0.002  -0.002  -0.010  -0.002  -3.176   0.000   0.001   0.007   0.001   2.297
 -0.011   0.000  -0.011   0.066  -0.000   0.064  -0.192  -0.001  -0.761   0.001  -0.010   0.164   0.002   0.964  -0.001   0.013
  0.005  -0.000   0.005   0.001  -0.000   0.001   0.007   0.000   0.009  -0.000   0.000  -0.002   0.000   0.011  -0.000  -0.000
 total augmentation occupancy for first ion, spin component:            2
 -0.001   0.000   0.000  -0.002  -0.000  -0.001   0.018  -0.000  -0.021  -0.000  -0.040  -0.022   0.000   0.023   0.000   0.048
  0.000  -0.000  -0.000  -0.000  -0.001   0.000  -0.000   0.013  -0.000   0.014   0.000   0.000  -0.013   0.000  -0.013  -0.000
  0.000  -0.000  -0.001  -0.001   0.000  -0.002   0.018   0.000  -0.022   0.000   0.041  -0.022  -0.000   0.023  -0.000  -0.050
 -0.002  -0.000  -0.001  -0.005   0.000   0.003   0.002  -0.000  -0.012   0.000   0.005   0.018  -0.000  -0.002  -0.000  -0.050
 -0.000  -0.001   0.000   0.000   0.000  -0.000  -0.000   0.005  -0.000   0.006  -0.000   0.000  -0.002   0.000  -0.002   0.000
 -0.001   0.000  -0.002   0.003  -0.000  -0.005   0.001  -0.000  -0.013   0.000  -0.005   0.019   0.000  -0.002   0.000   0.051
  0.018  -0.000   0.018   0.002  -0.000   0.001   0.048  -0.000   0.041   0.000  -0.000  -0.020   0.000  -0.026  -0.000  -0.000
 -0.000   0.013   0.000  -0.000   0.005  -0.000  -0.000   0.117  -0.000  -0.076   0.000   0.000  -0.089   0.000   0.052   0.000
 -0.021  -0.000  -0.022  -0.012  -0.000  -0.013   0.041  -0.000   0.094   0.000   0.002   0.001   0.000  -0.040  -0.000  -0.001
 -0.000   0.014   0.000   0.000   0.006   0.000   0.000  -0.076   0.000   0.113   0.000  -0.000   0.053  -0.000  -0.089   0.000
 -0.040   0.000   0.041   0.005  -0.000  -0.005  -0.000   0.000   0.002   0.000   0.108  -0.001   0.000  -0.002   0.000   0.104
 -0.022   0.000  -0.022   0.018   0.000   0.019  -0.020   0.000   0.001  -0.000  -0.001  -0.115   0.000   0.054  -0.000   0.003
  0.000  -0.013  -0.000  -0.000  -0.002   0.000   0.000  -0.089   0.000   0.053   0.000   0.000  -0.095   0.000   0.124  -0.001
  0.023   0.000   0.023  -0.002   0.000  -0.002  -0.026   0.000  -0.040  -0.000  -0.002   0.054   0.000  -0.056  -0.000   0.002
  0.000  -0.013  -0.000  -0.000  -0.002   0.000  -0.000   0.052  -0.000  -0.089   0.000  -0.000   0.124  -0.000  -0.096  -0.001
  0.048  -0.000  -0.050  -0.050   0.000   0.051  -0.000   0.000  -0.001   0.000   0.104   0.003  -0.001   0.002  -0.001  -0.643
  0.003  -0.000   0.003   0.011   0.000   0.013  -0.006   0.000   0.073  -0.000   0.003  -0.119  -0.000  -0.013   0.000  -0.008
  0.002   0.000   0.002  -0.000  -0.000  -0.000  -0.003  -0.000  -0.005   0.000   0.000   0.002   0.000  -0.001  -0.000   0.000


------------------------ aborting loop because EDIFF is reached ----------------------------------------





 total charge

# of ion       s       p       d       tot
------------------------------------------
    1        0.383   5.991   7.227  13.601
    2        0.397   5.987   7.228  13.613
    3        0.399   5.986   7.232  13.617
    4        0.397   5.987   7.228  13.613
--------------------------------------------------
tot          1.576  23.952  28.915  54.444



 magnetization (x)

# of ion       s       p       d       tot
------------------------------------------
    1        0.000  -0.011  -0.809  -0.820
    2       -0.022  -0.003  -0.418  -0.443
    3        0.030   0.004  -0.096  -0.062
    4       -0.020  -0.002  -0.393  -0.416
--------------------------------------------------
tot         -0.013  -0.011  -1.717  -1.741
 
    FORLOC:  cpu time      0.0248: real time      0.0248
    FORNL :  cpu time      1.9810: real time      1.9661
    STRESS:  cpu time      6.0146: real time      5.9700
    FORCOR:  cpu time      0.1887: real time      0.1886
    OFIELD:  cpu time      0.0225: real time      0.0225

  FORCE on cell =-STRESS in cart. coord.  units (eV):
  Direction    XX          YY          ZZ          XY          YZ          ZX
  --------------------------------------------------------------------------------------
  Alpha Z     9.40909     9.40909     9.40909
  Ewald    2739.29111  2419.83427 -2099.29479   -24.69538    -3.15917     3.44170
  Hartree  5209.82945  4891.31995  1454.79503   -19.31137    -2.31354     2.51397
  E(xc)    -339.72670  -339.73896  -341.51505    -0.01929    -0.00138     0.00152
  Local   -9141.41461 -8502.40785  -673.34372    44.13412     5.37715    -5.84831
  n-local  -139.61935  -140.37165  -112.18598    -0.23088     0.02408    -0.02638
  augment   286.45795   286.53924   302.72841     0.02531     0.01017    -0.01209
  Kinetic  1375.64180  1375.29439  1459.29473     0.12491     0.06177    -0.06988
  Fock        0.00000     0.00000     0.00000     0.00000     0.00000     0.00000
  -------------------------------------------------------------------------------------
  Total      -0.13126    -0.12153    -0.11229     0.02741    -0.00092     0.00053
  in kB      -0.05154    -0.04772    -0.04409     0.01077    -0.00036     0.00021
  external pressure =       -0.05 kB  Pullay stress =        0.00 kB


 VOLUME and BASIS-vectors are now :
 -----------------------------------------------------------------------------
  energy-cutoff  :      520.00
  volume of cell :     4080.00
      direct lattice vectors                 reciprocal lattice vectors
    15.000000000  0.000000000  0.000000000     0.066666667  0.000000000  0.000000000
     0.000000000 16.000000000  0.000000000     0.000000000  0.062500000  0.000000000
     0.000000000  0.000000000 17.000000000     0.000000000  0.000000000  0.058823529

  length of vectors
    15.000000000 16.000000000 17.000000000     0.066666667  0.062500000  0.058823529


 FORCES acting on ions:
    Electron-Ion                     Ewald-Force                    Non-Local-Force
 -----------------------------------------------------------------------------------------------
   0.812E+03 0.820E+03 -.674E-01   -.807E+03 -.814E+03 0.660E-01   -.583E+01 -.600E+01 0.262E-04
   -.813E+03 0.831E+03 -.125E+01   0.808E+03 -.824E+03 0.124E+01   0.486E+01 -.718E+01 0.755E-02
   -.821E+03 -.828E+03 -.197E+00   0.815E+03 0.822E+03 0.195E+00   0.619E+01 0.632E+01 0.826E-04
   0.824E+03 -.821E+03 0.151E+01   -.817E+03 0.816E+03 -.150E+01   -.701E+01 0.498E+01 -.131E-01
 -----------------------------------------------------------------------------------------------
   0.180E+01 0.188E+01 -.892E-04   -.114E-12 0.227E-12 0.000E+00   -.179E+01 -.189E+01 -.540E-02
 
 
 POSITION                                       TOTAL-FORCE (eV/Angst)
 -----------------------------------------------------------------------------------
      6.27582      7.27797      9.50004        -0.003477     -0.003967      0.000045
      8.73650      7.28124      9.50191        -0.008044      0.012967      0.000670
      8.70747      9.70583      9.50022         0.001256     -0.001789     -0.000594
      6.28021      9.73496      9.49784         0.010265     -0.007210     -0.000121
 -----------------------------------------------------------------------------------
    total drift:                                0.008350     -0.008966     -0.005484


--------------------------------------------------------------------------------------------------------



  FREE ENERGIE OF THE ION-ELECTRON SYSTEM (eV)
  ---------------------------------------------------
  free  energy   TOTEN  =       -13.07506564 eV

  energy  without entropy=      -13.07493711  energy(sigma->0) =      -13.07500137
 
 d Force = 0.7740034E-03[-0.739E-04, 0.162E-02]  d Energy = 0.8096696E-03-0.357E-04
 d Force = 0.1822991E+02[ 0.182E+02, 0.183E+02]  d Ewald  = 0.1822986E+02 0.502E-04


--------------------------------------------------------------------------------------------------------


    POTLOK:  cpu time      0.3293: real time      0.3289


--------------------------------------------------------------------------------------------------------


 Conjugate gradient step on ions:
 trial-energy change:   -0.000810  1 .order   -0.000774   -0.001622    0.000074
  (g-gl).g = 0.896E-04      g.g   = 0.196E-02  gl.gl    = 0.140E-01
 g(Force)  = 0.196E-02   g(Stress)= 0.000E+00 ortho     = 0.229E-04
 gamma     =   0.00641
 trial     =   0.82617
 opt step  =   0.79017  (harmonic =   0.79017) maximal distance =0.00299149
 next E    =   -13.075032   (d E  =  -0.00078)


--------------------------------------------------------------------------------------------------------


  
 reached required accuracy - stopping structural energy minimisation
     LOOP+:  cpu time    204.9232: real time    203.6953
    4ORBIT:  cpu time      0.0000: real time      0.0000



 total charge

# of ion       s       p       d       tot
------------------------------------------
    1        0.383   5.991   7.227  13.601
    2        0.397   5.987   7.228  13.613
    3        0.399   5.986   7.232  13.617
    4        0.397   5.987   7.228  13.613
--------------------------------------------------
tot          1.576  23.952  28.915  54.444



 magnetization (x)

# of ion       s       p       d       tot
------------------------------------------
    1        0.000  -0.011  -0.809  -0.820
    2       -0.022  -0.003  -0.418  -0.443
    3        0.030   0.004  -0.096  -0.062
    4       -0.020  -0.002  -0.393  -0.416
--------------------------------------------------
tot         -0.013  -0.011  -1.717  -1.741
 

 total amount of memory used by VASP MPI-rank0  8117483. kBytes
=======================================================================

   base      :      30000. kBytes
   nonlr-proj:       3590. kBytes
   fftplans  :     235681. kBytes
   grid      :     626626. kBytes
   one-center:        124. kBytes
   wavefun   :    7221462. kBytes
 
  
  
 General timing and accounting informations for this job:
 ========================================================
  
                  Total CPU time used (sec):     5214.970
                            User time (sec):     4578.058
                          System time (sec):      636.912
                         Elapsed time (sec):     5191.522
  
                   Maximum memory used (kb):    13048628.
                   Average memory used (kb):          N/A
  
                          Minor page faults:      2418677
                          Major page faults:            0
                 Voluntary context switches:      3814712
